 Q-Chem 5.0, Q-Chem, Inc., Pleasanton, CA (2017)
 Q-Chem 5.0.1 for Intel X86 EM64T Linux

User input:
--------------------------------------------------------------
$rem
threads 8
jobtype opt
method PBEh-3c
basis def2-mSVP
mem_static      1024
mem_total       8000
sym_ignore      true
unrestricted true
scf_algorithm	diis
scf_max_cycles	250
solvent_method  pcm
geom_opt_tol_energy 25
geom_opt_tol_gradient 75
$end

$pcm
theory  iefpcm
$end
$solvent
dielectric      4.33
$end

$molecule
read uincoords.mol
$end
--------------------------------------------------------------

   21   -3084.7317897749      7.33E-09 Convergence criterion met
 Total energy in the final basis set = -3084.73178977
   19   -3084.7376800617      9.58E-09 Convergence criterion met
 Total energy in the final basis set = -3084.73768006
   16   -3084.7376597695      9.78E-09 Convergence criterion met
 Total energy in the final basis set = -3084.73765977
   16   -3084.7376933526      8.90E-09 Convergence criterion met
 Total energy in the final basis set = -3084.73769335
   20   -3084.7380068038      6.36E-09 Convergence criterion met
 Total energy in the final basis set = -3084.73800680
   17   -3084.7383957954      8.11E-09 Convergence criterion met
 Total energy in the final basis set = -3084.73839580
   17   -3084.7383835311      8.09E-09 Convergence criterion met
 Total energy in the final basis set = -3084.73838353
   17   -3084.7383997647      8.50E-09 Convergence criterion met
   17   -3084.7384820955      8.84E-09 Convergence criterion met
 Total energy in the final basis set = -3084.73848210
   17   -3084.7384598767      8.85E-09 Convergence criterion met
 Total energy in the final basis set = -3084.73845988
   17   -3084.7384693943      9.13E-09 Convergence criterion met
 Total energy in the final basis set = -3084.73846939
   17   -3084.7384613746      9.16E-09 Convergence criterion met
 Total energy in the final basis set = -3084.73846137
   17   -3084.7384554066      9.17E-09 Convergence criterion met
 Total energy in the final basis set = -3084.73845541
   17   -3084.7384492073      9.14E-09 Convergence criterion met
 Total energy in the final basis set = -3084.73844921

             Standard Nuclear Orientation (Angstroms)
    I     Atom           X                Y                Z
 ----------------------------------------------------------------
    1      C       0.1641938946     0.1098678060    -0.0540500216
    2      C       0.1536240091     0.1478574209     1.3613584094
    3      H       1.0930634820     0.1945259361     1.9045798768
    4      C      -1.0308126994     0.1333928571     2.0579831916
    5      C      -2.2637559748     0.0635228824     1.3435797201
    6      C      -2.2760447807     0.0168723174    -0.0282416172
    7      H      -3.2213678489    -0.0409820947    -0.5583485410
    8      C      -1.0765565452     0.0457387355    -0.7623844269
    9      C      -1.3508904270     0.1796149127     3.4876958981
   10      C      -0.6326304755     0.2592961165     4.6545096324
   11      H       0.4496324547     0.3032083953     4.6577981456
   12      C      -2.7590090117     0.1325384038     3.5800779433
   13      C      -3.4788490209     0.1594126286     4.7711923896
   14      C      -3.3560162897     0.0598803643     2.3052621555
   15      C      -4.7256755624     0.0073382994     2.2159949596
   16      H      -5.2340698930    -0.0501266291     1.2609018552
   17      C      -1.3361427505     0.2884962081     5.8824708630
   18      H      -0.7656741797     0.3531950238     6.8003520510
   19      C      -2.7101754319     0.2406353217     5.9571481339
   20      H      -3.2013329292     0.2668855353     6.9222731803
   21      C      -4.8909827010     0.1046125945     4.6547158910
   22      H      -5.5092229664     0.1215242949     5.5440746781
   23      C      -5.4792054149     0.0301970577     3.4118307410
   24      H      -6.5591467711    -0.0113106199     3.3434595043
   25      B       1.4745426087     0.1114872645    -0.8469124861
   26      C       1.4645285105     0.1306567611    -2.3755316479
   27      C       2.6680385448     0.1850938201    -3.1189841758
   28      H       3.6206807810     0.2214365400    -2.5984042787
   29      C       2.6465957889     0.1898859025    -4.4916919521
   30      C       1.3959523553     0.1275347116    -5.1772818449
   31      C       0.2178888577     0.0638308526    -4.4767746644
   32      H      -0.7258557546     0.0089493256    -5.0106140986
   33      C       0.2160313140     0.0679153223    -3.0702084274
   34      C       3.7048169923     0.2459505609    -5.5050916818
   35      C       5.0757039129     0.3228437994    -5.4951445341
   36      H       5.6396282539     0.3549619385    -4.5709992731
   37      C       3.0543714860     0.2131025782    -6.7574296014
   38      C       3.7033194700     0.2520260625    -7.9900074997
   39      C       1.6543290200     0.1410394750    -6.6112035347
   40      C       0.8730862171     0.1041116291    -7.7414221074
   41      H      -0.2075572840     0.0493805209    -7.6876495818
   42      C       5.7631992541     0.3632465151    -6.7319059840
   43      H       6.8440963815     0.4240356271    -6.7179260840
   44      C       5.1158395249     0.3296765947    -7.9464982515
   45      H       5.6865616634     0.3642437388    -8.8667424938
   46      C       2.8764587443     0.2126440828    -9.1410100123
   47      H       3.3206528922     0.2398176088   -10.1287677766
   48      C       1.5085046874     0.1406568320    -9.0041236786
   49      H       0.8920279856     0.1116509252    -9.8940035869
   50      B      -1.1098453783    -0.0144548311    -2.2999898627
   51      C      -2.4884403806    -0.2029504460    -3.0610924978
   52      C      -3.2053140441     0.8841833668    -3.5835243924
   53      C      -4.4326824838     0.6913471245    -4.2081351903
   54      H      -4.9699321777     1.5439451568    -4.6101820003
   55      C      -4.9926461486    -0.5757842735    -4.3026371572
   56      C      -4.2865081773    -1.6598197180    -3.7999056155
   57      H      -4.7112038692    -2.6557526643    -3.8688543585
   58      C      -3.0438132474    -1.4850718191    -3.2024108595
   59      N      -6.2714539416    -0.7459863761    -4.8790661031
   60      C      -7.3292895281     0.0695614108    -4.4440912399
   61      C      -8.2766404617     0.5361276837    -5.3562322086
   62      H      -8.1866955302     0.2763158506    -6.4035417530
   63      C      -9.3302018285     1.3269798720    -4.9280300514
   64      H     -10.0562898988     1.6793663657    -5.6497299386
   65      C      -9.4483285028     1.6833203797    -3.5911264291
   66      H     -10.2681080399     2.3078527995    -3.2614714051
   67      C      -8.5003806114     1.2303213781    -2.6839838897
   68      H      -8.5807887842     1.4948910603    -1.6373635085
   69      C      -7.4534457998     0.4232767838    -3.1009506364
   70      H      -6.7287649375     0.0643464361    -2.3815646585
   71      C      -6.5319066183    -1.8485046423    -5.7057127397
   72      C      -7.7117185322    -2.5826449057    -5.5715912846
   73      H      -8.4378001733    -2.3069730511    -4.8175936401
   74      C      -7.9598323151    -3.6691565084    -6.3956313408
   75      H      -8.8811369386    -4.2249146468    -6.2745222361
   76      C      -7.0334736980    -4.0581268303    -7.3526791986
   77      H      -7.2265341061    -4.9118371097    -7.9888557999
   78      C      -5.8539655921    -3.3365279879    -7.4813320119
   79      H      -5.1219243487    -3.6226410394    -8.2258942226
   80      C      -5.6054766371    -2.2375380284    -6.6752219950
   81      H      -4.6863333088    -1.6782109519    -6.7941779206
   82      C      -2.3014140179    -2.7164795270    -2.7507350653
   83      H      -3.0101611590    -3.4519843553    -2.3599971674
   84      H      -1.6275103116    -2.4743344127    -1.9259962418
   85      C      -2.7023739774     2.2967411178    -3.4406459846
   86      H      -2.9429876910     2.8644819288    -4.3438981361
   87      H      -1.6136856973     2.3061928161    -3.3547879860
   88      C      -3.3151990567     2.9962249127    -2.2293323135
   89      H      -3.0616375073     2.4719416190    -1.3075788838
   90      H      -2.9531004767     4.0214237420    -2.1407017236
   91      H      -4.4033437475     3.0296199071    -2.3053237727
   92      C      -1.5013496395    -3.3438759088    -3.8903166730
   93      H      -0.7737225838    -2.6367360221    -4.2895099724
   94      H      -2.1548125312    -3.6489485187    -4.7094384247
   95      H      -0.9580682491    -4.2264935687    -3.5494318149
   96      C       2.8449878559    -0.0067801985    -0.0702062284
   97      C       3.6598024424     1.1225228844     0.1962912335
   98      C       4.8141151553     0.9883872579     0.9333835627
   99      H       5.4029030772     1.8638793174     1.1780991399
  100      C       5.1916598572    -0.2736014440     1.4360479470
  101      C       4.4021253773    -1.4040187392     1.1446054140
  102      H       4.7222953444    -2.3830746841     1.4783821983
  103      C       3.2575688235    -1.2818865239     0.3955739170
  104      N       6.3077424581    -0.4150947798     2.2159166024
  105      C       7.4184329451     0.4384758078     2.0754523400
  106      C       7.8694007898     0.7810006106     0.8010182911
  107      H       7.3835051982     0.3745959480    -0.0766253104
  108      C       8.9609126979     1.6206424659     0.6713250464
  109      H       9.3169550337     1.8822910107    -0.3157593615
  110      C       9.6049096223     2.1103912462     1.8002986567
  111      H      10.4585129809     2.7660175804     1.6932729857
  112      C       9.1573895426     1.7544056750     3.0672579318
  113      H       9.6544927567     2.1392615112     3.9471392610
  114      C       8.0669759202     0.9166235191     3.2128956306
  115      H       7.7060485327     0.6531861785     4.1984973228
  116      C       6.3562295236    -1.4371202080     3.1903321000
  117      C       5.2774904996    -1.6065869087     4.0561561089
  118      H       4.4252236316    -0.9413857840     4.0024659334
  119      C       5.3148678796    -2.6217455984     4.9952811864
  120      H       4.4814438233    -2.7534888125     5.6717647926
  121      C       6.4186791701    -3.4610589374     5.0720265797
  122      H       6.4420167133    -4.2569360682     5.8042098515
  123      C       7.4941587863    -3.2797651846     4.2106670529
  124      H       8.3502775765    -3.9383896250     4.2647923095
  125      C       7.4726000233    -2.2655659041     3.2697620830
  126      H       8.3004997475    -2.1332800179     2.5853215189
  127      C       2.4826439731    -2.5244801557     0.0442667820
  128      H       2.6335756296    -3.2758921011     0.8228324433
  129      H       1.4143864058    -2.3023415617     0.0307248509
  130      C       3.2364131888     2.4899366683    -0.2660607355
  131      H       4.1216248005     3.1137096063    -0.4103000510
  132      H       2.7490813392     2.4118940241    -1.2397578487
  133      C       2.8952011696    -3.1068305626    -1.3067578391
  134      H       2.7102025540    -2.4016745331    -2.1160376920
  135      H       2.3243514771    -4.0107652458    -1.5201465816
  136      H       3.9543636394    -3.3678303907    -1.3187850163
  137      C       2.2881577839     3.1712274245     0.7183696757
  138      H       1.3706133509     2.5979013797     0.8463437522
  139      H       2.0103351542     4.1610976695     0.3564819233
  140      H       2.7533348546     3.2890722377     1.6981024276
 ----------------------------------------------------------------

   17   -3084.7384477951      9.10E-09 Convergence criterion met
 Total energy in the final basis set = -3084.73844780
 Final energy is   -3084.73844779510
 **  OPTIMIZATION CONVERGED  **

                    Orbital Energies (a.u.)
 --------------------------------------------------------------

 Alpha MOs
 -- Occupied --
-14.768 -14.662 -10.539 -10.530 -10.529 -10.486 -10.485 -10.485
-10.485 -10.485 -10.484 -10.479 -10.478 -10.478 -10.477 -10.477
-10.476 -10.476 -10.476 -10.475 -10.475 -10.472 -10.463 -10.453
-10.453 -10.451 -10.451 -10.451 -10.450 -10.449 -10.448 -10.448
-10.448 -10.447 -10.447 -10.447 -10.447 -10.446 -10.446 -10.446
-10.446 -10.444 -10.443 -10.443 -10.443 -10.441 -10.441 -10.440
-10.440 -10.440 -10.439 -10.439 -10.439 -10.438 -10.437 -10.437
-10.437 -10.437 -10.436 -10.436 -10.436 -10.436 -10.435 -10.430
-10.430 -10.424 -10.424 -10.422 -10.421 -10.420 -10.420 -10.411
-10.411 -10.409 -10.409 -10.406 -10.406 -10.405  -6.903  -6.899
 -1.158  -1.072  -1.000  -1.000  -0.999  -0.998  -0.976  -0.955
 -0.951  -0.942  -0.940  -0.932  -0.920  -0.919  -0.910  -0.901
 -0.889  -0.888  -0.880  -0.876  -0.873  -0.873  -0.856  -0.847
 -0.846  -0.838  -0.837  -0.834  -0.834  -0.833  -0.832  -0.824
 -0.822  -0.812  -0.803  -0.797  -0.796  -0.788  -0.784  -0.781
 -0.751  -0.750  -0.725  -0.719  -0.718  -0.717  -0.714  -0.712
 -0.707  -0.705  -0.704  -0.700  -0.691  -0.688  -0.676  -0.674
 -0.671  -0.667  -0.664  -0.657  -0.655  -0.647  -0.637  -0.632
 -0.628  -0.627  -0.621  -0.618  -0.599  -0.597  -0.588  -0.585
 -0.582  -0.580  -0.579  -0.578  -0.574  -0.568  -0.560  -0.560
 -0.558  -0.554  -0.552  -0.545  -0.544  -0.536  -0.529  -0.527
 -0.526  -0.526  -0.519  -0.516  -0.515  -0.513  -0.512  -0.510
 -0.508  -0.506  -0.502  -0.493  -0.492  -0.491  -0.490  -0.490
 -0.487  -0.486  -0.483  -0.479  -0.477  -0.476  -0.476  -0.475
 -0.474  -0.472  -0.471  -0.471  -0.470  -0.469  -0.464  -0.463
 -0.463  -0.456  -0.453  -0.450  -0.450  -0.448  -0.443  -0.442
 -0.441  -0.440  -0.438  -0.430  -0.429  -0.428  -0.426  -0.426
 -0.424  -0.420  -0.417  -0.417  -0.415  -0.415  -0.412  -0.408
 -0.407  -0.401  -0.398  -0.397  -0.394  -0.393  -0.390  -0.389
 -0.389  -0.385  -0.384  -0.384  -0.381  -0.380  -0.379  -0.376
 -0.375  -0.372  -0.358  -0.357  -0.354  -0.349  -0.345  -0.340
 -0.334  -0.334  -0.333  -0.325  -0.320  -0.314  -0.310  -0.307
 -0.301  -0.300  -0.295  -0.290  -0.287  -0.285  -0.275  -0.271
 -0.269  -0.262  -0.253  -0.243  -0.239  -0.214  -0.149

 Beta MOs
 -- Occupied --
-14.758 -14.662 -10.539 -10.532 -10.530 -10.486 -10.485 -10.484
-10.483 -10.483 -10.483 -10.478 -10.477 -10.477 -10.477 -10.477
-10.476 -10.476 -10.476 -10.476 -10.474 -10.472 -10.458 -10.454
-10.453 -10.452 -10.451 -10.450 -10.449 -10.449 -10.449 -10.447
-10.447 -10.447 -10.447 -10.447 -10.447 -10.446 -10.446 -10.446
-10.445 -10.444 -10.443 -10.443 -10.443 -10.441 -10.440 -10.440
-10.440 -10.440 -10.439 -10.439 -10.439 -10.438 -10.437 -10.437
-10.436 -10.435 -10.435 -10.435 -10.435 -10.435 -10.435 -10.431
-10.431 -10.424 -10.424 -10.422 -10.421 -10.420 -10.420 -10.411
-10.410 -10.409 -10.409 -10.406 -10.405 -10.404  -6.901  -6.896
 -1.142  -1.072  -1.000  -0.999  -0.996  -0.994  -0.971  -0.955
 -0.951  -0.941  -0.939  -0.932  -0.919  -0.919  -0.909  -0.897
 -0.887  -0.886  -0.880  -0.876  -0.872  -0.871  -0.856  -0.846
 -0.843  -0.837  -0.836  -0.834  -0.833  -0.832  -0.832  -0.821
 -0.814  -0.812  -0.800  -0.796  -0.795  -0.788  -0.782  -0.781
 -0.748  -0.745  -0.721  -0.717  -0.716  -0.715  -0.712  -0.711
 -0.706  -0.704  -0.703  -0.699  -0.691  -0.688  -0.676  -0.673
 -0.669  -0.666  -0.663  -0.654  -0.654  -0.645  -0.634  -0.632
 -0.628  -0.627  -0.618  -0.618  -0.599  -0.594  -0.584  -0.582
 -0.579  -0.578  -0.577  -0.572  -0.571  -0.567  -0.559  -0.558
 -0.555  -0.554  -0.550  -0.544  -0.543  -0.535  -0.528  -0.526
 -0.525  -0.524  -0.517  -0.516  -0.514  -0.512  -0.511  -0.510
 -0.507  -0.505  -0.500  -0.493  -0.492  -0.490  -0.489  -0.487
 -0.485  -0.483  -0.481  -0.478  -0.477  -0.476  -0.474  -0.473
 -0.472  -0.470  -0.469  -0.469  -0.468  -0.466  -0.463  -0.463
 -0.460  -0.456  -0.452  -0.450  -0.449  -0.444  -0.441  -0.439
 -0.439  -0.437  -0.436  -0.429  -0.429  -0.427  -0.426  -0.423
 -0.421  -0.420  -0.416  -0.416  -0.415  -0.411  -0.410  -0.407
 -0.407  -0.400  -0.397  -0.394  -0.393  -0.392  -0.389  -0.389
 -0.384  -0.383  -0.382  -0.381  -0.380  -0.378  -0.375  -0.375
 -0.372  -0.368  -0.356  -0.354  -0.349  -0.345  -0.344  -0.334
 -0.332  -0.328  -0.325  -0.321  -0.319  -0.303  -0.301  -0.300
 -0.297  -0.296  -0.295  -0.290  -0.284  -0.283  -0.274  -0.262
 -0.259  -0.245  -0.240  -0.232  -0.214

          Ground-State Mulliken Net Atomic Charges

     Atom                 Charge (a.u.)    Spin (a.u.)
  --------------------------------------------------------
      1 C                    -0.134459       0.018074
      2 C                    -0.414035      -0.010237
      3 H                     0.207537      -0.001369
      4 C                     0.084405       0.034598
      5 C                     0.059751       0.093640
      6 C                    -0.403301      -0.058433
      7 H                     0.227361       0.002336
      8 C                    -0.142949       0.060764
      9 C                     0.181590      -0.041892
     10 C                    -0.410846       0.066435
     11 H                     0.224318      -0.003925
     12 C                    -0.079307       0.023246
     13 C                     0.228563      -0.037422
     14 C                     0.179576      -0.057557
     15 C                    -0.400244       0.085873
     16 H                     0.235157      -0.005027
     17 C                    -0.224422      -0.044427
     18 H                     0.237696       0.002194
     19 C                    -0.361200       0.061923
     20 H                     0.236812      -0.003603
     21 C                    -0.358394       0.078796
     22 H                     0.235809      -0.004652
     23 C                    -0.226454      -0.053013
     24 H                     0.241388       0.002554
     25 B                     0.509766       0.339114
     26 C                    -0.129904       0.020208
     27 C                    -0.413495      -0.010491
     28 H                     0.208838      -0.000966
     29 C                     0.081344       0.035343
     30 C                     0.060558       0.096481
     31 C                    -0.406388      -0.059350
     32 H                     0.227022       0.002355
     33 C                    -0.137421       0.063226
     34 C                     0.183592      -0.043100
     35 C                    -0.411131       0.068268
     36 H                     0.225410      -0.004031
     37 C                    -0.079727       0.023965
     38 C                     0.226627      -0.038506
     39 C                     0.180905      -0.059066
     40 C                    -0.401707       0.088191
     41 H                     0.236275      -0.005161
     42 C                    -0.224435      -0.045629
     43 H                     0.237740       0.002253
     44 C                    -0.360467       0.063529
     45 H                     0.236751      -0.003694
     46 C                    -0.357505       0.080688
     47 H                     0.235824      -0.004759
     48 C                    -0.226331      -0.054369
     49 H                     0.241647       0.002618
     50 B                     0.529109       0.281888
     51 C                    -0.196154      -0.027131
     52 C                     0.056734       0.004063
     53 C                    -0.353791      -0.001493
     54 H                     0.234536       0.000389
     55 C                     0.290911       0.001480
     56 C                    -0.362734      -0.001483
     57 H                     0.236269       0.000371
     58 C                     0.046138       0.004278
     59 N                    -0.670241       0.000024
     60 C                     0.287538      -0.000012
     61 C                    -0.287067       0.000048
     62 H                     0.256060      -0.000002
     63 C                    -0.237140      -0.000037
     64 H                     0.240613       0.000002
     65 C                    -0.260737       0.000053
     66 H                     0.237726      -0.000003
     67 C                    -0.236827      -0.000038
     68 H                     0.241025       0.000003
     69 C                    -0.290719       0.000051
     70 H                     0.256855      -0.000004
     71 C                     0.299989      -0.000022
     72 C                    -0.301614       0.000053
     73 H                     0.256573      -0.000003
     74 C                    -0.235555      -0.000039
     75 H                     0.239968       0.000002
     76 C                    -0.263755       0.000057
     77 H                     0.236613      -0.000003
     78 C                    -0.235420      -0.000040
     79 H                     0.240684       0.000003
     80 C                    -0.292733       0.000049
     81 H                     0.257091      -0.000003
     82 C                    -0.544388       0.003766
     83 H                     0.229218       0.000336
     84 H                     0.258821      -0.002641
     85 C                    -0.540645       0.003037
     86 H                     0.228604       0.000361
     87 H                     0.254597      -0.001905
     88 C                    -0.656166      -0.000247
     89 H                     0.239938      -0.000189
     90 H                     0.219280       0.000009
     91 H                     0.216166      -0.000058
     92 C                    -0.654723      -0.000281
     93 H                     0.241744      -0.000189
     94 H                     0.215939      -0.000044
     95 H                     0.217043       0.000016
     96 C                    -0.141367       0.329179
     97 C                     0.076301      -0.116696
     98 C                    -0.348475       0.160177
     99 H                     0.283956      -0.008198
    100 C                     0.332062       0.015469
    101 C                    -0.354805       0.157161
    102 H                     0.284525      -0.008062
    103 C                     0.063338      -0.119908
    104 N                    -0.576973       0.368553
    105 C                     0.270529      -0.076277
    106 C                    -0.263790       0.107341
    107 H                     0.290492      -0.005483
    108 C                    -0.234376      -0.074479
    109 H                     0.268825       0.003998
    110 C                    -0.228211       0.120804
    111 H                     0.267081      -0.006612
    112 C                    -0.233908      -0.069736
    113 H                     0.267693       0.003534
    114 C                    -0.264046       0.102175
    115 H                     0.284032      -0.005315
    116 C                     0.237968      -0.068476
    117 C                    -0.250968       0.093970
    118 H                     0.287531      -0.004780
    119 C                    -0.235287      -0.064700
    120 H                     0.269307       0.003571
    121 C                    -0.226820       0.103809
    122 H                     0.267015      -0.005691
    123 C                    -0.236321      -0.059520
    124 H                     0.267456       0.003119
    125 C                    -0.252678       0.088513
    126 H                     0.281631      -0.004662
    127 C                    -0.551531       0.011176
    128 H                     0.240920      -0.000107
    129 H                     0.283994      -0.003601
    130 C                    -0.544087       0.009638
    131 H                     0.239519      -0.000306
    132 H                     0.274783      -0.002524
    133 C                    -0.659999      -0.003076
    134 H                     0.259670      -0.000346
    135 H                     0.233453      -0.000722
    136 H                     0.212439      -0.000034
    137 C                    -0.662390      -0.002229
    138 H                     0.259420      -0.000505
    139 H                     0.235444      -0.000641
    140 H                     0.213138       0.000034
  --------------------------------------------------------
  Sum of atomic charges =    -0.000000

                    Cartesian Multipole Moments
 -----------------------------------------------------------------
    Charge (ESU x 10^10)
                -0.0000
    Dipole Moment (Debye)
         X      23.5526      Y      -1.5964      Z      14.6098
       Tot      27.7619
    Quadrupole Moments (Debye-Ang)
        XX    -288.7668     XY      -4.2548     YY    -449.7000
        XZ      56.1327     YZ     -11.5095     ZZ    -440.5405

 Total job time:  93721.07s(wall), 272026.31s(cpu)
        *  Thank you very much for using Q-Chem.  Have a nice day.  *
