 Q-Chem 5.0, Q-Chem, Inc., Pleasanton, CA (2017)
 Q-Chem 5.0.1 for Intel X86 EM64T Linux

User input:
--------------------------------------------------------------
$rem
threads 8
jobtype opt
method PBEh-3c
basis def2-mSVP
mem_static      1024
mem_total       8000
sym_ignore      true
unrestricted true
scf_algorithm   diis
scf_max_cycles  250
solvent_method  pcm
geom_opt_tol_energy 25
geom_opt_tol_gradient 75
$end

$pcm
theory  iefpcm
$end

$solvent
dielectric      1.0001
$end

$molecule
read utLEincoords.mol
$end

--------------------------------------------------------------

   54   -3084.6907879276      8.95E-09 Convergence criterion met
 Total energy in the final basis set = -3084.69078793
   23   -3084.6967456051      8.34E-09 Convergence criterion met
 Total energy in the final basis set = -3084.69674561
   22   -3084.6973823021      5.80E-09 Convergence criterion met
 Total energy in the final basis set = -3084.69738230
   22   -3084.6971883732      6.54E-09 Convergence criterion met
 Total energy in the final basis set = -3084.69718837
   23   -3084.6970044307      5.68E-09 Convergence criterion met
 Total energy in the final basis set = -3084.69700443
   19   -3084.6979080819      6.88E-09 Convergence criterion met
 Total energy in the final basis set = -3084.69790808
   17   -3084.6980152793      7.90E-09 Convergence criterion met
 Total energy in the final basis set = -3084.69801528
   15   -3084.6986914314      7.62E-09 Convergence criterion met
   13   -3084.6989024444      7.05E-09 Convergence criterion met
 Total energy in the final basis set = -3084.69890244
   11   -3084.6989133198      9.79E-09 Convergence criterion met
 Total energy in the final basis set = -3084.69891332
   12   -3084.6989067926      6.45E-09 Convergence criterion met
 Total energy in the final basis set = -3084.69890679
   10   -3084.6989070268      5.07E-09 Convergence criterion met
 Total energy in the final basis set = -3084.69890703
   10   -3084.6989106518      6.81E-09 Convergence criterion met
 Total energy in the final basis set = -3084.69891065
    8   -3084.6989114284      7.37E-09 Convergence criterion met
 Total energy in the final basis set = -3084.69891143

             Standard Nuclear Orientation (Angstroms)
    I     Atom           X                Y                Z
 ----------------------------------------------------------------
    1      C      -0.0873369451     0.7836760460     0.0404094880
    2      C      -0.1422960910     0.8612285708     1.4524570565
    3      H       0.7796515895     0.8849977963     2.0274398844
    4      C      -1.3476415598     0.9064856023     2.1055611216
    5      C      -2.5575469141     0.8712318680     1.3539417821
    6      C      -2.5253174723     0.8012630244    -0.0174822752
    7      H      -3.4508994353     0.7732019467    -0.5833368918
    8      C      -1.3020438375     0.7594909767    -0.7094196833
    9      C      -3.6764127309     0.9196651025     2.2851876559
   10      C      -5.0430623849     0.9091633613     2.1627470789
   11      H      -5.5278858997     0.8563485535     1.1956951639
   12      C      -5.8270625697     0.9674560590     3.3373146269
   13      H      -6.9052824301     0.9576732429     3.2396383968
   14      C      -5.2726036922     1.0358823227     4.5941585960
   15      H      -5.9131890847     1.0793820708     5.4664862053
   16      C      -3.1163607501     0.9877662090     3.5755316741
   17      C      -3.8647200154     1.0483382609     4.7467369927
   18      C      -1.7079830443     0.9851740724     3.5225059683
   19      C      -1.0193756168     1.0513503112     4.7056467632
   20      H       0.0631998761     1.0573198726     4.7348395499
   21      C      -1.7510082340     1.1158057426     5.9141659159
   22      H      -1.2036514900     1.1693946358     6.8466409558
   23      C      -3.1260261417     1.1143921722     5.9509336956
   24      H      -3.6421261492     1.1651651529     6.9018584568
   25      B      -1.2818841944     0.6660055935    -2.2486940146
   26      B       1.2408671388     0.7106975907    -0.7063190753
   27      C       1.2940665471     0.6601436840    -2.2300487171
   28      C       2.5278544918     0.6018171047    -2.9208272039
   29      H       3.4607478612     0.5985407865    -2.3645259557
   30      C       2.5632928663     0.5517205496    -4.2879803697
   31      C       3.6728813005     0.4981027983    -5.2417201863
   32      C       5.0417785488     0.4769180913    -5.1568453744
   33      H       5.5537485901     0.4990207189    -4.2025636860
   34      C       5.7952315819     0.4259352200    -6.3520935669
   35      H       6.8756021348     0.4094519201    -6.2824479353
   36      C       5.2102271834     0.3966301879    -7.5971010958
   37      H       5.8301984505     0.3583756067    -8.4845741816
   38      C       3.0866850340     0.4666776027    -6.5231577984
   39      C       3.8005610686     0.4170826710    -7.7175609200
   40      C       1.6787091273     0.4958131365    -6.4472186635
   41      C       0.9590348566     0.4742620536    -7.6165656164
   42      H      -0.1237382134     0.4962738915    -7.6195640452
   43      C       1.6597999875     0.4234159414    -8.8427287383
   44      H       1.0896228899     0.4069610284    -9.7630627036
   45      C       3.0334590455     0.3951715273    -8.9088535427
   46      H       3.5270763850     0.3571837257    -9.8723010193
   47      C       1.3443548598     0.5489377117    -5.0305771133
   48      C       0.1346694280     0.5868251401    -4.3791868002
   49      H      -0.7896942725     0.5741200793    -4.9486342672
   50      C       0.0745007401     0.6415232159    -2.9744541068
   51      C       2.5970836765     0.5902463486     0.0857645836
   52      C       2.9635500047    -0.6564137035     0.6721041753
   53      C       4.1633500329    -0.7829201039     1.3235763643
   54      H       4.4537142653    -1.7426096873     1.7330482921
   55      C       5.0650249010     0.3002798325     1.3857491789
   56      C       4.7128176107     1.5361781975     0.8008622155
   57      H       5.3883965816     2.3782937940     0.8860645263
   58      C       3.4976609219     1.6911779952     0.1844891672
   59      N       6.2786143044     0.1463838467     1.9977487429
   60      C       6.4260150763    -0.7436182544     3.0833353946
   61      C       7.5195260352    -1.6038443731     3.1401633171
   62      H       8.2580990481    -1.5987520199     2.3490893932
   63      C       7.6388912333    -2.4819768893     4.2025846933
   64      H       8.4807636793    -3.1597222728     4.2406343569
   65      C       6.6780706545    -2.5070977091     5.2046921113
   66      H       6.7746489274    -3.1992987672     6.0299629021
   67      C       5.5947725783    -1.6419463041     5.1470390211
   68      H       4.8488977943    -1.6503384998     5.9300218730
   69      C       5.4663604621    -0.7547579884     4.0934275287
   70      H       4.6298588409    -0.0687587173     4.0552778782
   71      C       7.4065032661     0.8533472652     1.5295048106
   72      C       8.2761310726     1.4578952174     2.4321817220
   73      H       8.0814104608     1.4000243235     3.4950234313
   74      C       9.3762194504     2.1476468498     1.9549926152
   75      H      10.0477191252     2.6285457883     2.6530379221
   76      C       9.6118451045     2.2361691668     0.5893074497
   77      H      10.4721854372     2.7796933473     0.2233285484
   78      C       8.7455105851     1.6241409548    -0.3055332765
   79      H       8.9318170399     1.6797314256    -1.3693419612
   80      C       7.6450908059     0.9261726921     0.1583477437
   81      H       6.9785292014     0.4289365009    -0.5348784423
   82      C       2.0858122402    -1.8684506226     0.5176486665
   83      H       2.2809230174    -2.5587235913     1.3422779879
   84      H       1.0376227056    -1.5783042016     0.5942781059
   85      C       3.1021963329     3.0369714525    -0.3539803663
   86      H       2.6320913334     2.9147907774    -1.3316801926
   87      H       3.9984838301     3.6419011649    -0.5113965856
   88      C       2.3165172819    -2.5866234880    -0.8125310122
   89      H       2.0826142436    -1.9432530888    -1.6594575977
   90      H       3.3514907904    -2.9166551418    -0.9121937576
   91      H       1.6761939144    -3.4657608507    -0.8801768831
   92      C       2.1415222667     3.7752087382     0.5769471604
   93      H       1.2142065017     3.2205365468     0.7133162681
   94      H       2.5874417628     3.9406111565     1.5585179889
   95      H       1.8826444303     4.7469781387     0.1576303565
   96      C      -2.6391080678     0.5649348065    -3.0594489364
   97      C      -3.2955243992    -0.6686475434    -3.1924255116
   98      C      -4.5147961117    -0.7557155985    -3.8513272528
   99      H      -5.0202181516    -1.7130565444    -3.9190475094
  100      C      -5.0982500147     0.3671880955    -4.4197489836
  101      C      -4.4411640717     1.5853121420    -4.3249471352
  102      H      -4.8867672869     2.4665575087    -4.7738851055
  103      C      -3.2351916680     1.6930036495    -3.6424126128
  104      N      -6.3534785127     0.2814457948    -5.0635442367
  105      C      -7.3582572094     1.1976064480    -4.7189949386
  106      C      -8.2109554432     1.7150827491    -5.6943907902
  107      H      -8.0915886952     1.4102553073    -6.7261915310
  108      C      -9.2055754549     2.6136922638    -5.3485280874
  109      H      -9.8577035741     3.0042575988    -6.1192935250
  110      C      -9.3577169029     3.0288612313    -4.0333993796
  111      H     -10.1310497428     3.7373794915    -3.7685006219
  112      C      -8.5034196829     2.5248798419    -3.0636964727
  113      H      -8.6108829170     2.8349658836    -2.0322556566
  114      C      -7.5179336357     1.6110019910    -3.3967962885
  115      H      -6.8640919134     1.2143902593    -2.6311447034
  116      C      -6.6276786998    -0.7832815450    -5.9309611267
  117      C      -7.8769271420    -1.4063071784    -5.9313098091
  118      H      -8.6467100579    -1.0695353189    -5.2492587604
  119      C      -8.1375984698    -2.4550764253    -6.7972735137
  120      H      -9.1135597120    -2.9232517200    -6.7807562717
  121      C      -7.1587094319    -2.9195677979    -7.6628289097
  122      H      -7.3633691283    -3.7445040651    -8.3320464156
  123      C      -5.9111939946    -2.3123336454    -7.6544546465
  124      H      -5.1353712711    -2.6595127912    -8.3248261365
  125      C      -5.6461003567    -1.2505989319    -6.8067789666
  126      H      -4.6718516225    -0.7798311234    -6.8172394439
  127      C      -2.6911200795    -1.9427265715    -2.6610277177
  128      H      -2.0780324743    -1.7354111521    -1.7816373706
  129      H      -3.4875190613    -2.6129840526    -2.3256771685
  130      C      -2.6232361535     3.0613098182    -3.4996755971
  131      H      -1.5417162544     2.9830164442    -3.3706281219
  132      H      -2.7799396688     3.6304119798    -4.4203547492
  133      C      -1.8467817724    -2.6540525951    -3.7165344789
  134      H      -1.0216008851    -2.0235137710    -4.0478198857
  135      H      -1.4223304941    -3.5790941246    -3.3230402067
  136      H      -2.4456399980    -2.9076949327    -4.5926364818
  137      C      -3.2235969818     3.8281441620    -2.3234666353
  138      H      -3.0405315390     3.3069702176    -1.3835965709
  139      H      -2.7914553052     4.8263950332    -2.2406240589
  140      H      -4.3030387231     3.9381787103    -2.4381458115
 ----------------------------------------------------------------

    8   -3084.6989107192      7.19E-09 Convergence criterion met
 Total energy in the final basis set = -3084.69891072
 Final energy is   -3084.69891071920
 **  OPTIMIZATION CONVERGED  **

                    Orbital Energies (a.u.)
 --------------------------------------------------------------

 Alpha MOs
 -- Occupied --
-14.776 -14.649 -10.556 -10.549 -10.549 -10.505 -10.505 -10.505
-10.505 -10.499 -10.499 -10.499 -10.498 -10.498 -10.498 -10.491
-10.490 -10.490 -10.490 -10.477 -10.473 -10.472 -10.457 -10.447
-10.445 -10.443 -10.443 -10.442 -10.442 -10.442 -10.440 -10.440
-10.440 -10.439 -10.439 -10.438 -10.437 -10.437 -10.437 -10.436
-10.436 -10.435 -10.434 -10.432 -10.432 -10.431 -10.431 -10.430
-10.430 -10.428 -10.427 -10.427 -10.427 -10.427 -10.426 -10.426
-10.426 -10.425 -10.425 -10.425 -10.424 -10.424 -10.423 -10.421
-10.421 -10.420 -10.418 -10.410 -10.409 -10.407 -10.407 -10.403
-10.402 -10.396 -10.396 -10.395 -10.395 -10.392  -6.894  -6.890
 -1.171  -1.059  -1.019  -1.014  -0.993  -0.989  -0.989  -0.943
 -0.937  -0.933  -0.930  -0.922  -0.919  -0.915  -0.911  -0.910
 -0.908  -0.894  -0.894  -0.879  -0.870  -0.862  -0.861  -0.843
 -0.834  -0.833  -0.833  -0.827  -0.826  -0.825  -0.824  -0.822
 -0.819  -0.799  -0.794  -0.789  -0.786  -0.775  -0.774  -0.768
 -0.768  -0.765  -0.741  -0.735  -0.732  -0.717  -0.708  -0.706
 -0.703  -0.695  -0.694  -0.688  -0.688  -0.679  -0.675  -0.671
 -0.665  -0.663  -0.657  -0.655  -0.652  -0.649  -0.638  -0.635
 -0.623  -0.619  -0.616  -0.615  -0.605  -0.605  -0.601  -0.590
 -0.587  -0.575  -0.572  -0.571  -0.568  -0.567  -0.563  -0.560
 -0.556  -0.551  -0.551  -0.548  -0.546  -0.543  -0.541  -0.537
 -0.532  -0.523  -0.523  -0.520  -0.517  -0.515  -0.504  -0.504
 -0.504  -0.503  -0.498  -0.495  -0.493  -0.492  -0.484  -0.483
 -0.481  -0.481  -0.480  -0.477  -0.475  -0.473  -0.470  -0.469
 -0.467  -0.466  -0.465  -0.465  -0.465  -0.461  -0.460  -0.460
 -0.459  -0.459  -0.456  -0.455  -0.453  -0.453  -0.449  -0.443
 -0.442  -0.440  -0.440  -0.431  -0.427  -0.421  -0.418  -0.417
 -0.415  -0.412  -0.411  -0.409  -0.406  -0.405  -0.403  -0.402
 -0.402  -0.396  -0.395  -0.394  -0.391  -0.388  -0.385  -0.382
 -0.378  -0.376  -0.376  -0.374  -0.373  -0.372  -0.369  -0.366
 -0.365  -0.360  -0.360  -0.354  -0.351  -0.347  -0.346  -0.344
 -0.342  -0.339  -0.332  -0.323  -0.322  -0.313  -0.310  -0.296
 -0.290  -0.285  -0.283  -0.281  -0.276  -0.276  -0.274  -0.261
 -0.258  -0.247  -0.242  -0.232  -0.227  -0.200  -0.141

 Beta MOs
 -- Occupied --
-14.768 -14.649 -10.555 -10.550 -10.550 -10.504 -10.504 -10.504
-10.504 -10.500 -10.499 -10.499 -10.499 -10.497 -10.497 -10.491
-10.490 -10.489 -10.489 -10.473 -10.473 -10.472 -10.457 -10.447
-10.445 -10.443 -10.443 -10.442 -10.442 -10.441 -10.441 -10.441
-10.440 -10.440 -10.439 -10.438 -10.437 -10.436 -10.436 -10.435
-10.435 -10.435 -10.435 -10.432 -10.432 -10.431 -10.431 -10.430
-10.430 -10.428 -10.427 -10.427 -10.427 -10.427 -10.426 -10.426
-10.425 -10.425 -10.424 -10.424 -10.424 -10.423 -10.423 -10.421
-10.421 -10.421 -10.419 -10.410 -10.409 -10.407 -10.407 -10.403
-10.402 -10.396 -10.396 -10.394 -10.394 -10.392  -6.891  -6.888
 -1.157  -1.059  -1.017  -1.011  -0.989  -0.989  -0.987  -0.943
 -0.937  -0.931  -0.929  -0.921  -0.919  -0.911  -0.910  -0.909
 -0.907  -0.893  -0.892  -0.877  -0.870  -0.862  -0.857  -0.843
 -0.833  -0.831  -0.828  -0.826  -0.824  -0.823  -0.823  -0.822
 -0.819  -0.799  -0.791  -0.787  -0.785  -0.774  -0.773  -0.768
 -0.765  -0.760  -0.739  -0.733  -0.730  -0.716  -0.707  -0.704
 -0.702  -0.694  -0.694  -0.688  -0.686  -0.679  -0.675  -0.670
 -0.664  -0.663  -0.655  -0.654  -0.649  -0.646  -0.636  -0.633
 -0.622  -0.618  -0.616  -0.613  -0.605  -0.603  -0.590  -0.587
 -0.586  -0.573  -0.571  -0.570  -0.567  -0.566  -0.562  -0.559
 -0.555  -0.550  -0.550  -0.546  -0.544  -0.542  -0.539  -0.537
 -0.532  -0.523  -0.520  -0.518  -0.516  -0.514  -0.504  -0.503
 -0.503  -0.497  -0.494  -0.494  -0.491  -0.487  -0.481  -0.481
 -0.480  -0.480  -0.476  -0.476  -0.474  -0.472  -0.469  -0.467
 -0.466  -0.465  -0.465  -0.464  -0.464  -0.460  -0.459  -0.458
 -0.457  -0.456  -0.454  -0.453  -0.453  -0.451  -0.448  -0.443
 -0.442  -0.440  -0.433  -0.430  -0.426  -0.419  -0.417  -0.417
 -0.413  -0.412  -0.408  -0.406  -0.405  -0.404  -0.402  -0.400
 -0.396  -0.395  -0.392  -0.389  -0.388  -0.386  -0.385  -0.382
 -0.378  -0.375  -0.375  -0.372  -0.371  -0.371  -0.368  -0.365
 -0.364  -0.359  -0.356  -0.349  -0.346  -0.344  -0.343  -0.339
 -0.337  -0.332  -0.320  -0.319  -0.318  -0.308  -0.303  -0.289
 -0.285  -0.285  -0.281  -0.276  -0.273  -0.272  -0.260  -0.248
 -0.247  -0.234  -0.228  -0.220  -0.200

          Ground-State Mulliken Net Atomic Charges

     Atom                 Charge (a.u.)    Spin (a.u.)
  --------------------------------------------------------
      1 C                    -0.126901      -0.007669
      2 C                    -0.406739       0.018373
      3 H                     0.180384      -0.002851
      4 C                     0.100186       0.006055
      5 C                     0.080402       0.109113
      6 C                    -0.395484      -0.067346
      7 H                     0.221637       0.002873
      8 C                    -0.143052       0.075467
      9 C                     0.196711      -0.058736
     10 C                    -0.387784       0.084613
     11 H                     0.211334      -0.005029
     12 C                    -0.201806      -0.051337
     13 H                     0.216708       0.002508
     14 C                    -0.343656       0.076594
     15 H                     0.208915      -0.004615
     16 C                    -0.074225       0.021094
     17 C                     0.255152      -0.033728
     18 C                     0.197938      -0.032488
     19 C                    -0.394913       0.052819
     20 H                     0.190786      -0.003189
     21 C                    -0.200040      -0.037168
     22 H                     0.208979       0.001904
     23 C                    -0.345585       0.049912
     24 H                     0.209472      -0.002937
     25 B                     0.563603       0.259721
     26 B                     0.499281       0.373038
     27 C                    -0.124786       0.004888
     28 C                    -0.397534       0.015883
     29 H                     0.177525      -0.002979
     30 C                     0.091644       0.008531
     31 C                     0.204431      -0.036585
     32 C                    -0.392816       0.059607
     33 H                     0.184215      -0.003623
     34 C                    -0.198977      -0.041939
     35 H                     0.206879       0.002151
     36 C                    -0.345287       0.056692
     37 H                     0.209340      -0.003339
     38 C                    -0.077433       0.024764
     39 C                     0.253016      -0.038403
     40 C                     0.195814      -0.064310
     41 C                    -0.388126       0.094589
     42 H                     0.213306      -0.005623
     43 C                    -0.201133      -0.057440
     44 H                     0.217401       0.002797
     45 C                    -0.343716       0.086921
     46 H                     0.208969      -0.005231
     47 C                     0.084395       0.121176
     48 C                    -0.397836      -0.072194
     49 H                     0.221773       0.003051
     50 C                    -0.142334       0.083632
     51 C                    -0.125527       0.360404
     52 C                     0.075476      -0.075716
     53 C                    -0.350654       0.105319
     54 H                     0.263872      -0.005849
     55 C                     0.323209       0.098606
     56 C                    -0.351982       0.103619
     57 H                     0.262646      -0.005677
     58 C                     0.091909      -0.070130
     59 N                    -0.595935       0.294537
     60 C                     0.260590      -0.066268
     61 C                    -0.256339       0.080569
     62 H                     0.262325      -0.004293
     63 C                    -0.216792      -0.054147
     64 H                     0.245496       0.002752
     65 C                    -0.216678       0.091828
     66 H                     0.245644      -0.005126
     67 C                    -0.216578      -0.058773
     68 H                     0.249040       0.003270
     69 C                    -0.255839       0.084689
     70 H                     0.271270      -0.004437
     71 C                     0.258257      -0.065644
     72 C                    -0.256208       0.079498
     73 H                     0.261568      -0.004238
     74 C                    -0.217298      -0.053517
     75 H                     0.245242       0.002705
     76 C                    -0.216298       0.090817
     77 H                     0.245703      -0.005072
     78 C                    -0.216972      -0.058154
     79 H                     0.249143       0.003286
     80 C                    -0.254047       0.084178
     81 H                     0.271776      -0.004425
     82 C                    -0.549376       0.007139
     83 H                     0.224221       0.000429
     84 H                     0.297076      -0.002168
     85 C                    -0.541707       0.007540
     86 H                     0.291613      -0.001842
     87 H                     0.223185      -0.000049
     88 C                    -0.652614      -0.000489
     89 H                     0.279548      -0.000961
     90 H                     0.202041      -0.000097
     91 H                     0.230765      -0.000509
     92 C                    -0.656019      -0.000048
     93 H                     0.277213      -0.000986
     94 H                     0.204199       0.000025
     95 H                     0.232364      -0.000228
     96 C                    -0.200098      -0.024887
     97 C                     0.060726       0.004335
     98 C                    -0.347332      -0.001419
     99 H                     0.224826       0.000352
    100 C                     0.285508       0.002082
    101 C                    -0.339751      -0.001411
    102 H                     0.222496       0.000368
    103 C                     0.065637       0.004151
    104 N                    -0.673554       0.001204
    105 C                     0.294814      -0.000267
    106 C                    -0.276640       0.000443
    107 H                     0.243169      -0.000024
    108 C                    -0.214741      -0.000313
    109 H                     0.215407       0.000015
    110 C                    -0.238977       0.000547
    111 H                     0.212778      -0.000031
    112 C                    -0.213876      -0.000332
    113 H                     0.216347       0.000019
    114 C                    -0.276520       0.000469
    115 H                     0.244777      -0.000027
    116 C                     0.307101      -0.000288
    117 C                    -0.289272       0.000477
    118 H                     0.244743      -0.000026
    119 C                    -0.212627      -0.000334
    120 H                     0.214761       0.000017
    121 C                    -0.241595       0.000591
    122 H                     0.211622      -0.000033
    123 C                    -0.212267      -0.000356
    124 H                     0.215608       0.000019
    125 C                    -0.280944       0.000498
    126 H                     0.245122      -0.000028
    127 C                    -0.542256       0.003153
    128 H                     0.257544      -0.002207
    129 H                     0.220818       0.000322
    130 C                    -0.541084       0.003022
    131 H                     0.256568      -0.001890
    132 H                     0.220239       0.000303
    133 C                    -0.644601      -0.000184
    134 H                     0.247230      -0.000225
    135 H                     0.205784       0.000007
    136 H                     0.212772      -0.000058
    137 C                    -0.645840      -0.000189
    138 H                     0.244768      -0.000192
    139 H                     0.208887       0.000007
    140 H                     0.213361      -0.000052
  --------------------------------------------------------
  Sum of atomic charges =    -0.000000

                    Cartesian Multipole Moments
 -----------------------------------------------------------------
    Charge (ESU x 10^10)
                -0.0000
    Dipole Moment (Debye)
         X      18.8379      Y      -1.4225      Z      10.5731
       Tot      21.6491
    Quadrupole Moments (Debye-Ang)
        XX    -334.2187     XY       5.0409     YY    -460.0056
        XZ      36.0350     YZ      -4.7361     ZZ    -449.3270

 Total job time:  66576.25s(wall), 211249.18s(cpu)
        *  Thank you very much for using Q-Chem.  Have a nice day.  *
