 Q-Chem 5.0, Q-Chem, Inc., Pleasanton, CA (2017)
 Q-Chem 5.0.1 for Intel X86 EM64T Linux

User input:
--------------------------------------------------------------
$rem
threads 8
jobtype opt
method PBEh-3c
basis def2-mSVP
mem_static      1024
mem_total       8000
sym_ignore      true
unrestricted true
scf_algorithm   diis
scf_max_cycles  250
solvent_method  pcm
geom_opt_tol_energy 25
geom_opt_tol_gradient 75
$end

$pcm
theory  iefpcm
$end

$solvent
dielectric      2.03
$end

$molecule
read utLEincoords.mol
$end

--------------------------------------------------------------

   22   -3084.7116867990      7.92E-09 Convergence criterion met
 Total energy in the final basis set = -3084.71168680
   20   -3084.7187947704      9.38E-09 Convergence criterion met
 Total energy in the final basis set = -3084.71879477
   17   -3084.7201224666      6.93E-09 Convergence criterion met
 Total energy in the final basis set = -3084.72012247
   17   -3084.7202871577      6.57E-09 Convergence criterion met
 Total energy in the final basis set = -3084.72028716
   16   -3084.7200914546      8.13E-09 Convergence criterion met
 Total energy in the final basis set = -3084.72009145
   16   -3084.7207753816      8.88E-09 Convergence criterion met
 Total energy in the final basis set = -3084.72077538
   16   -3084.7207240955      8.10E-09 Convergence criterion met
 Total energy in the final basis set = -3084.72072410
   16   -3084.7207995055      8.45E-09 Convergence criterion met
   16   -3084.7209463471      8.39E-09 Convergence criterion met
 Total energy in the final basis set = -3084.72094635
   16   -3084.7209691834      8.39E-09 Convergence criterion met
 Total energy in the final basis set = -3084.72096918
   16   -3084.7209615943      8.04E-09 Convergence criterion met
 Total energy in the final basis set = -3084.72096159
   16   -3084.7209578399      8.09E-09 Convergence criterion met
 Total energy in the final basis set = -3084.72095784
   16   -3084.7209622072      8.17E-09 Convergence criterion met
 Total energy in the final basis set = -3084.72096221
   16   -3084.7209585663      8.17E-09 Convergence criterion met
 Total energy in the final basis set = -3084.72095857

             Standard Nuclear Orientation (Angstroms)
    I     Atom           X                Y                Z
 ----------------------------------------------------------------
    1      C      -0.0844811474     0.7581742392     0.0338096783
    2      C      -0.1376290103     0.8377750935     1.4455541734
    3      H       0.7856227707     0.8533825686     2.0181733080
    4      C      -1.3421300852     0.8940211453     2.1006833006
    5      C      -2.5541083203     0.8669834765     1.3499319000
    6      C      -2.5241886485     0.7936650870    -0.0214204182
    7      H      -3.4519075679     0.7724438945    -0.5842611798
    8      C      -1.3015600422     0.7416234987    -0.7154359829
    9      C      -3.6716754657     0.9264804045     2.2823029371
   10      C      -5.0393188459     0.9277009842     2.1610821107
   11      H      -5.5260078033     0.8776842564     1.1946546735
   12      C      -5.8213428821     0.9949016600     3.3368634482
   13      H      -6.8998286152     0.9944277737     3.2404463851
   14      C      -5.2645137009     1.0607538267     4.5936777938
   15      H      -5.9035264018     1.1113497973     5.4669037519
   16      C      -3.1090936981     0.9920417624     3.5721548124
   17      C      -3.8559377908     1.0612047971     4.7444765408
   18      C      -1.7002441902     0.9773876993     3.5176524921
   19      C      -1.0093658034     1.0394711731     4.7007063281
   20      H       0.0732684941     1.0355926053     4.7293011764
   21      C      -1.7398968091     1.1123552454     5.9099434540
   22      H      -1.1908358430     1.1623764600     6.8416941390
   23      C      -3.1155044402     1.1231039065     5.9485623234
   24      H      -3.6303439094     1.1799118105     6.8999179540
   25      B      -1.2839949377     0.6480363906    -2.2539924812
   26      B       1.2450555814     0.6703762406    -0.7106696135
   27      C       1.2907296312     0.6122054472    -2.2360627159
   28      C       2.5232034431     0.5437656167    -2.9260824039
   29      H       3.4545913968     0.5296890455    -2.3679666373
   30      C       2.5588461609     0.4943758411    -4.2944612962
   31      C       3.6678551953     0.4287266001    -5.2479356274
   32      C       5.0371108479     0.3920998854    -5.1624196835
   33      H       5.5495734269     0.4083389328    -4.2082899211
   34      C       5.7901629923     0.3319423993    -6.3581717662
   35      H       6.8702703103     0.3032256266    -6.2876746009
   36      C       5.2054290344     0.3083730050    -7.6041045945
   37      H       5.8251500875     0.2623562950    -8.4914853821
   38      C       3.0815233047     0.4032701589    -6.5301964680
   39      C       3.7954342800     0.3444856392    -7.7247093772
   40      C       1.6737371166     0.4469246037    -6.4551012158
   41      C       0.9535968963     0.4309770180    -7.6247417785
   42      H      -0.1290703394     0.4634823378    -7.6283607824
   43      C       1.6545837075     0.3712809902    -8.8510899006
   44      H       1.0843525814     0.3592995716    -9.7715959436
   45      C       3.0284804018     0.3288457971    -8.9167517927
   46      H       3.5222691028     0.2841033199    -9.8799485118
   47      C       1.3396996027     0.5040054168    -5.0375526710
   48      C       0.1305464903     0.5539629437    -4.3868714409
   49      H      -0.7927065947     0.5500782463    -4.9583717752
   50      C       0.0707673077     0.6092286109    -2.9809313582
   51      C       2.6061605721     0.5659534789     0.0838079027
   52      C       2.9907637051    -0.6745925827     0.6601870626
   53      C       4.1925936749    -0.7870680536     1.3153907876
   54      H       4.4976055786    -1.7450810499     1.7183634775
   55      C       5.0711117097     0.3117908981     1.3910025321
   56      C       4.6990174694     1.5446203369     0.8167139840
   57      H       5.3570978216     2.3996161878     0.9121100187
   58      C       3.4822675562     1.6797401634     0.1933308904
   59      N       6.2862026262     0.1753371026     2.0084394214
   60      C       6.4372736442    -0.7057792743     3.0983904005
   61      C       7.5474851173    -1.5451681768     3.1697663752
   62      H       8.2947463453    -1.5306676828     2.3870375619
   63      C       7.6679591676    -2.4194108725     4.2348869266
   64      H       8.5205482211    -3.0828521008     4.2849388468
   65      C       6.6941779704    -2.4587505230     5.2251749163
   66      H       6.7931391212    -3.1471167789     6.0535402297
   67      C       5.5953424532    -1.6133327902     5.1530469830
   68      H       4.8413297797    -1.6327004449     5.9279926517
   69      C       5.4626379308    -0.7321536926     4.0952347904
   70      H       4.6159644449    -0.0593097325     4.0475447563
   71      C       7.4038748072     0.8945032967     1.5406089386
   72      C       8.2733470817     1.4980821659     2.4459856680
   73      H       8.0842113770     1.4324224352     3.5094557733
   74      C       9.3635043137     2.2024877246     1.9683792380
   75      H      10.0340711252     2.6845295875     2.6665244567
   76      C       9.5903770726     2.3040987265     0.6012525304
   77      H      10.4442244524     2.8580910847     0.2354394484
   78      C       8.7245350704     1.6924986073    -0.2955138816
   79      H       8.9059325879     1.7581323219    -1.3596078245
   80      C       7.6318485153     0.9823498279     0.1673900615
   81      H       6.9681260083     0.4831191366    -0.5271074990
   82      C       2.1322738804    -1.9011707242     0.5033135113
   83      H       2.3281444705    -2.5831886136     1.3343836934
   84      H       1.0786692532    -1.6271603375     0.5674211902
   85      C       3.0688301323     3.0249468633    -0.3361132313
   86      H       2.5726770739     2.9042576603    -1.3009082946
   87      H       3.9587620164     3.6321000661    -0.5178801473
   88      C       2.3860638838    -2.6261268205    -0.8182433789
   89      H       2.1441029374    -1.9950066319    -1.6723356264
   90      H       3.4287970664    -2.9339163315    -0.9085247051
   91      H       1.7655755957    -3.5198233946    -0.8831597855
   92      C       2.1339865551     3.7613878543     0.6215224722
   93      H       1.2121777913     3.2040123018     0.7835127125
   94      H       2.6074820148     3.9247486881     1.5905953693
   95      H       1.8611618256     4.7338139696     0.2122027537
   96      C      -2.6439656540     0.5603225987    -3.0645462570
   97      C      -3.3086173850    -0.6682152514    -3.2060414448
   98      C      -4.5282924462    -0.7437846621    -3.8668482740
   99      H      -5.0389739014    -1.6980742707    -3.9400387750
  100      C      -5.1043428128     0.3862429608    -4.4290396768
  101      C      -4.4398425577     1.5998451833    -4.3256463558
  102      H      -4.8789749322     2.4872165440    -4.7693085072
  103      C      -3.2333407909     1.6956136285    -3.6411413297
  104      N      -6.3596724211     0.3126238585    -5.0751926083
  105      C      -7.3643802665     1.2229359051    -4.7131551511
  106      C      -8.2165770155     1.7587954269    -5.6793834919
  107      H      -8.0973291781     1.4745272695    -6.7172154318
  108      C      -9.2120372961     2.6508053917    -5.3170192307
  109      H      -9.8638967035     3.0558037111    -6.0806865370
  110      C      -9.3649432742     3.0409486957    -3.9936973171
  111      H     -10.1387661713     3.7441390742    -3.7157436607
  112      C      -8.5105743887     2.5189102553    -3.0329122058
  113      H      -8.6183702336     2.8092519119    -1.9956625185
  114      C      -7.5242528326     1.6113630793    -3.3832235030
  115      H      -6.8720358911     1.2004184355    -2.6235321069
  116      C      -6.6375444276    -0.7431803935    -5.9526652626
  117      C      -7.8878236205    -1.3649031109    -5.9570289564
  118      H      -8.6571519317    -1.0354002990    -5.2707544417
  119      C      -8.1512694621    -2.4057391830    -6.8326371829
  120      H      -9.1278963644    -2.8728783511    -6.8186087580
  121      C      -7.1739813538    -2.8634336107    -7.7044961231
  122      H      -7.3806226005    -3.6819904065    -8.3811284738
  123      C      -5.9252947039    -2.2573198685    -7.6924025814
  124      H      -5.1506106489    -2.5988330855    -8.3671715959
  125      C      -5.6577208296    -1.2034119258    -6.8348731474
  126      H      -4.6824468654    -0.7343303356    -6.8441398573
  127      C      -2.7139680457    -1.9501294675    -2.6820120646
  128      H      -2.0938826732    -1.7518186909    -1.8055021557
  129      H      -3.5151348077    -2.6142309260    -2.3457899206
  130      C      -2.6126416896     3.0594495969    -3.4917361220
  131      H      -1.5324241820     2.9728654795    -3.3573124308
  132      H      -2.7616864738     3.6323519207    -4.4113152071
  133      C      -1.8811955902    -2.6661050513    -3.7438089612
  134      H      -1.0516574088    -2.0419866638    -4.0766544324
  135      H      -1.4632001878    -3.5957136930    -3.3542989881
  136      H      -2.4863580793    -2.9118699203    -4.6180210464
  137      C      -3.2124872549     3.8276212332    -2.3159941747
  138      H      -3.0368629890     3.3024985514    -1.3767733212
  139      H      -2.7728438350     4.8222587637    -2.2288854322
  140      H      -4.2907084024     3.9460464658    -2.4350045324
 ----------------------------------------------------------------

   16   -3084.7209561054      8.19E-09 Convergence criterion met
 Total energy in the final basis set = -3084.72095611
 Final energy is   -3084.72095610536
 **  OPTIMIZATION CONVERGED  **

                    Orbital Energies (a.u.)
 --------------------------------------------------------------

 Alpha MOs
 -- Occupied --
-14.773 -14.656 -10.545 -10.539 -10.538 -10.494 -10.494 -10.494
-10.494 -10.487 -10.487 -10.486 -10.486 -10.485 -10.485 -10.483
-10.483 -10.481 -10.481 -10.480 -10.479 -10.468 -10.465 -10.448
-10.447 -10.447 -10.446 -10.445 -10.445 -10.444 -10.444 -10.444
-10.444 -10.442 -10.442 -10.442 -10.442 -10.442 -10.441 -10.441
-10.441 -10.440 -10.440 -10.438 -10.438 -10.437 -10.437 -10.435
-10.435 -10.434 -10.433 -10.433 -10.433 -10.432 -10.431 -10.431
-10.431 -10.431 -10.430 -10.430 -10.429 -10.428 -10.428 -10.425
-10.424 -10.422 -10.421 -10.417 -10.417 -10.413 -10.413 -10.405
-10.405 -10.402 -10.402 -10.400 -10.400 -10.399  -6.898  -6.894
 -1.164  -1.066  -1.007  -1.004  -0.994  -0.994  -0.983  -0.949
 -0.944  -0.937  -0.935  -0.925  -0.915  -0.915  -0.914  -0.907
 -0.897  -0.884  -0.882  -0.881  -0.875  -0.869  -0.852  -0.850
 -0.840  -0.833  -0.831  -0.829  -0.829  -0.828  -0.827  -0.826
 -0.825  -0.805  -0.798  -0.793  -0.791  -0.781  -0.779  -0.775
 -0.758  -0.757  -0.731  -0.725  -0.724  -0.713  -0.710  -0.710
 -0.708  -0.700  -0.699  -0.694  -0.685  -0.682  -0.678  -0.669
 -0.669  -0.662  -0.661  -0.659  -0.653  -0.644  -0.642  -0.628
 -0.625  -0.623  -0.622  -0.612  -0.605  -0.595  -0.593  -0.591
 -0.586  -0.576  -0.575  -0.572  -0.569  -0.565  -0.563  -0.558
 -0.555  -0.555  -0.549  -0.548  -0.538  -0.538  -0.536  -0.530
 -0.529  -0.524  -0.523  -0.521  -0.514  -0.513  -0.510  -0.507
 -0.507  -0.501  -0.498  -0.496  -0.491  -0.487  -0.487  -0.486
 -0.485  -0.481  -0.480  -0.477  -0.474  -0.473  -0.472  -0.471
 -0.470  -0.469  -0.468  -0.466  -0.465  -0.465  -0.465  -0.460
 -0.459  -0.457  -0.454  -0.450  -0.450  -0.449  -0.448  -0.445
 -0.442  -0.438  -0.435  -0.433  -0.432  -0.424  -0.423  -0.419
 -0.419  -0.416  -0.413  -0.412  -0.411  -0.408  -0.408  -0.405
 -0.401  -0.400  -0.397  -0.392  -0.391  -0.391  -0.388  -0.384
 -0.383  -0.382  -0.380  -0.379  -0.379  -0.376  -0.373  -0.371
 -0.370  -0.365  -0.353  -0.351  -0.349  -0.348  -0.346  -0.342
 -0.340  -0.337  -0.331  -0.327  -0.316  -0.314  -0.313  -0.301
 -0.295  -0.293  -0.288  -0.283  -0.282  -0.280  -0.277  -0.267
 -0.264  -0.255  -0.247  -0.237  -0.233  -0.207  -0.144

 Beta MOs
 -- Occupied --
-14.763 -14.656 -10.544 -10.540 -10.540 -10.492 -10.492 -10.492
-10.492 -10.487 -10.487 -10.486 -10.486 -10.485 -10.485 -10.482
-10.482 -10.481 -10.480 -10.480 -10.479 -10.465 -10.463 -10.449
-10.448 -10.446 -10.446 -10.445 -10.445 -10.445 -10.445 -10.443
-10.443 -10.442 -10.442 -10.442 -10.441 -10.441 -10.441 -10.440
-10.440 -10.440 -10.440 -10.438 -10.438 -10.437 -10.437 -10.434
-10.434 -10.434 -10.433 -10.433 -10.433 -10.432 -10.431 -10.431
-10.430 -10.430 -10.430 -10.429 -10.429 -10.428 -10.428 -10.425
-10.424 -10.422 -10.421 -10.417 -10.417 -10.413 -10.413 -10.405
-10.405 -10.402 -10.402 -10.399 -10.399 -10.399  -6.895  -6.892
 -1.149  -1.066  -1.006  -1.000  -0.994  -0.994  -0.978  -0.949
 -0.944  -0.936  -0.934  -0.925  -0.914  -0.914  -0.913  -0.902
 -0.896  -0.882  -0.881  -0.879  -0.874  -0.869  -0.850  -0.848
 -0.840  -0.832  -0.830  -0.828  -0.828  -0.828  -0.826  -0.825
 -0.818  -0.805  -0.795  -0.791  -0.790  -0.781  -0.777  -0.774
 -0.755  -0.752  -0.727  -0.723  -0.722  -0.711  -0.709  -0.708
 -0.706  -0.700  -0.698  -0.694  -0.685  -0.682  -0.676  -0.669
 -0.668  -0.661  -0.660  -0.658  -0.650  -0.641  -0.640  -0.627
 -0.623  -0.622  -0.622  -0.611  -0.602  -0.593  -0.591  -0.583
 -0.580  -0.575  -0.574  -0.572  -0.567  -0.564  -0.562  -0.557
 -0.554  -0.553  -0.548  -0.546  -0.538  -0.537  -0.534  -0.529
 -0.527  -0.524  -0.521  -0.520  -0.513  -0.511  -0.510  -0.507
 -0.506  -0.500  -0.496  -0.490  -0.487  -0.487  -0.486  -0.485
 -0.481  -0.480  -0.478  -0.474  -0.472  -0.472  -0.471  -0.470
 -0.469  -0.467  -0.466  -0.464  -0.464  -0.463  -0.463  -0.459
 -0.458  -0.457  -0.452  -0.449  -0.449  -0.445  -0.444  -0.444
 -0.441  -0.437  -0.433  -0.433  -0.426  -0.424  -0.423  -0.419
 -0.418  -0.415  -0.413  -0.411  -0.409  -0.406  -0.406  -0.403
 -0.401  -0.396  -0.393  -0.391  -0.390  -0.387  -0.384  -0.383
 -0.382  -0.380  -0.378  -0.377  -0.377  -0.375  -0.373  -0.370
 -0.368  -0.364  -0.350  -0.349  -0.343  -0.343  -0.341  -0.338
 -0.336  -0.332  -0.326  -0.320  -0.313  -0.308  -0.299  -0.294
 -0.293  -0.291  -0.288  -0.283  -0.278  -0.277  -0.267  -0.255
 -0.253  -0.240  -0.234  -0.225  -0.207

          Ground-State Mulliken Net Atomic Charges

     Atom                 Charge (a.u.)    Spin (a.u.)
  --------------------------------------------------------
      1 C                    -0.128774       0.005944
      2 C                    -0.410271       0.002409
      3 H                     0.194800      -0.001835
      4 C                     0.090924       0.021442
      5 C                     0.071545       0.102384
      6 C                    -0.400960      -0.064057
      7 H                     0.224630       0.002664
      8 C                    -0.143155       0.068924
      9 C                     0.187740      -0.058550
     10 C                    -0.396223       0.086225
     11 H                     0.224469      -0.005083
     12 C                    -0.215249      -0.052752
     13 H                     0.229818       0.002557
     14 C                    -0.352858       0.078599
     15 H                     0.223213      -0.004686
     16 C                    -0.076078       0.022411
     17 C                     0.241988      -0.036063
     18 C                     0.189108      -0.037777
     19 C                    -0.404033       0.060665
     20 H                     0.208667      -0.003621
     21 C                    -0.213944      -0.041399
     22 H                     0.224140       0.002078
     23 C                    -0.354840       0.056959
     24 H                     0.223918      -0.003335
     25 B                     0.547553       0.272199
     26 B                     0.508554       0.353109
     27 C                    -0.128624       0.011696
     28 C                    -0.400871      -0.001259
     29 H                     0.191583      -0.001906
     30 C                     0.082442       0.024999
     31 C                     0.195031      -0.040302
     32 C                    -0.402827       0.064851
     33 H                     0.204102      -0.003890
     34 C                    -0.213193      -0.044052
     35 H                     0.222719       0.002211
     36 C                    -0.354417       0.061034
     37 H                     0.223746      -0.003577
     38 C                    -0.078858       0.023830
     39 C                     0.239792      -0.038169
     40 C                     0.187096      -0.060659
     41 C                    -0.396627       0.089871
     42 H                     0.226029      -0.005293
     43 C                    -0.214726      -0.055071
     44 H                     0.230408       0.002670
     45 C                    -0.352952       0.082154
     46 H                     0.223085      -0.004897
     47 C                     0.075922       0.105048
     48 C                    -0.403575      -0.065124
     49 H                     0.224462       0.002692
     50 C                    -0.141488       0.071921
     51 C                    -0.136652       0.334950
     52 C                     0.068347      -0.102164
     53 C                    -0.349177       0.136107
     54 H                     0.274689      -0.007157
     55 C                     0.317930       0.047615
     56 C                    -0.350503       0.133361
     57 H                     0.274024      -0.006940
     58 C                     0.081582      -0.097807
     59 N                    -0.581651       0.343923
     60 C                     0.259467      -0.073173
     61 C                    -0.259343       0.094855
     62 H                     0.275779      -0.004972
     63 C                    -0.226675      -0.064433
     64 H                     0.259033       0.003267
     65 C                    -0.222537       0.111220
     66 H                     0.258875      -0.006135
     67 C                    -0.226040      -0.069526
     68 H                     0.261425       0.003764
     69 C                    -0.258631       0.099934
     70 H                     0.282672      -0.005121
     71 C                     0.259037      -0.072924
     72 C                    -0.259927       0.094259
     73 H                     0.275255      -0.004937
     74 C                    -0.226943      -0.064180
     75 H                     0.258855       0.003231
     76 C                    -0.222326       0.110906
     77 H                     0.258922      -0.006118
     78 C                    -0.226262      -0.069328
     79 H                     0.261207       0.003800
     80 C                    -0.257091       0.100075
     81 H                     0.282682      -0.005148
     82 C                    -0.549771       0.009117
     83 H                     0.232147       0.000052
     84 H                     0.288909      -0.002677
     85 C                    -0.543596       0.009128
     86 H                     0.285224      -0.002435
     87 H                     0.231597      -0.000128
     88 C                    -0.657598      -0.001841
     89 H                     0.270867      -0.000731
     90 H                     0.206356      -0.000039
     91 H                     0.232606      -0.000624
     92 C                    -0.659609      -0.001593
     93 H                     0.268048      -0.000703
     94 H                     0.207592       0.000006
     95 H                     0.234459      -0.000471
     96 C                    -0.195913      -0.026383
     97 C                     0.053209       0.004329
     98 C                    -0.353712      -0.001553
     99 H                     0.230821       0.000371
    100 C                     0.285010       0.001640
    101 C                    -0.347195      -0.001579
    102 H                     0.228861       0.000386
    103 C                     0.058484       0.004196
    104 N                    -0.672926       0.000058
    105 C                     0.294196      -0.000027
    106 C                    -0.284506       0.000069
    107 H                     0.250975      -0.000004
    108 C                    -0.227478      -0.000052
    109 H                     0.229033       0.000002
    110 C                    -0.251954       0.000078
    111 H                     0.226159      -0.000004
    112 C                    -0.226639      -0.000053
    113 H                     0.229921       0.000004
    114 C                    -0.285720       0.000071
    115 H                     0.252429      -0.000005
    116 C                     0.306785      -0.000034
    117 C                    -0.297731       0.000073
    118 H                     0.251761      -0.000004
    119 C                    -0.225394      -0.000054
    120 H                     0.228297       0.000002
    121 C                    -0.255097       0.000083
    122 H                     0.224894      -0.000005
    123 C                    -0.224867      -0.000056
    124 H                     0.229207       0.000004
    125 C                    -0.290131       0.000074
    126 H                     0.252803      -0.000005
    127 C                    -0.543276       0.003303
    128 H                     0.258634      -0.002293
    129 H                     0.224714       0.000339
    130 C                    -0.541711       0.003167
    131 H                     0.257087      -0.001971
    132 H                     0.224203       0.000322
    133 C                    -0.651019      -0.000223
    134 H                     0.245883      -0.000218
    135 H                     0.211723       0.000010
    136 H                     0.213925      -0.000058
    137 C                    -0.652014      -0.000221
    138 H                     0.243595      -0.000190
    139 H                     0.213816       0.000008
    140 H                     0.214661      -0.000054
  --------------------------------------------------------
  Sum of atomic charges =    -0.000000

                    Cartesian Multipole Moments
 -----------------------------------------------------------------
    Charge (ESU x 10^10)
                -0.0000
    Dipole Moment (Debye)
         X      22.2459      Y      -1.5368      Z      12.5309
       Tot      25.5786
    Quadrupole Moments (Debye-Ang)
        XX    -308.7935     XY       6.4342     YY    -457.8545
        XZ      43.7671     YZ      -5.0842     ZZ    -446.4727

 Total job time:  69642.63s(wall), 217921.92s(cpu)
        *  Thank you very much for using Q-Chem.  Have a nice day.  *
