 Q-Chem 5.0, Q-Chem, Inc., Pleasanton, CA (2017)
 Q-Chem 5.0.1 for Intel X86 EM64T Linux

User input:
--------------------------------------------------------------
$rem
threads 8
jobtype opt
method PBEh-3c
basis def2-mSVP
mem_static      1024
mem_total       8000
sym_ignore      true
unrestricted true
scf_algorithm	diis
scf_max_cycles	250
solvent_method  pcm
geom_opt_tol_energy 25
geom_opt_tol_gradient 75
$end

$pcm
theory  iefpcm
$end
$solvent
dielectric      4.33
$end

$molecule
read utLEincoords.mol
$end
--------------------------------------------------------------

   21   -3084.7306690742      8.84E-09 Convergence criterion met
 Total energy in the final basis set = -3084.73066907
   20   -3084.7373804245      6.07E-09 Convergence criterion met
 Total energy in the final basis set = -3084.73738042
   19   -3084.7384070781      8.91E-09 Convergence criterion met
 Total energy in the final basis set = -3084.73840708
   20   -3084.7383174846      6.27E-09 Convergence criterion met
 Total energy in the final basis set = -3084.73831748
   19   -3084.7383850833      8.40E-09 Convergence criterion met
 Total energy in the final basis set = -3084.73838508
   17   -3084.7389427455      9.22E-09 Convergence criterion met
 Total energy in the final basis set = -3084.73894275
   17   -3084.7389428407      8.61E-09 Convergence criterion met
 Total energy in the final basis set = -3084.73894284
   17   -3084.7388792575      8.80E-09 Convergence criterion met
   17   -3084.7390784175      8.99E-09 Convergence criterion met
 Total energy in the final basis set = -3084.73907842
   17   -3084.7390570308      8.94E-09 Convergence criterion met
 Total energy in the final basis set = -3084.73905703
   17   -3084.7390404915      9.20E-09 Convergence criterion met
 Total energy in the final basis set = -3084.73904049
   17   -3084.7390377943      9.27E-09 Convergence criterion met
 Total energy in the final basis set = -3084.73903779
   17   -3084.7390288976      9.40E-09 Convergence criterion met
 Total energy in the final basis set = -3084.73902890
   17   -3084.7390192306      9.38E-09 Convergence criterion met
 Total energy in the final basis set = -3084.73901923

             Standard Nuclear Orientation (Angstroms)
    I     Atom           X                Y                Z
 ----------------------------------------------------------------
    1      C      -0.0878483321     0.7671560412     0.0334919117
    2      C      -0.1435963299     0.8449443261     1.4450356779
    3      H       0.7787444757     0.8532203899     2.0188467627
    4      C      -1.3497011742     0.9080020485     2.0981299225
    5      C      -2.5609041678     0.8891681411     1.3443329055
    6      C      -2.5286366417     0.8147455995    -0.0269875855
    7      H      -3.4563510307     0.7984642577    -0.5901462403
    8      C      -1.3042266478     0.7562684461    -0.7189760842
    9      C      -3.6804426893     0.9564580977     2.2743692532
   10      C      -5.0483464232     0.9685717335     2.1498029700
   11      H      -5.5337306090     0.9235648870     1.1823357365
   12      C      -5.8323351806     1.0410586477     3.3244024686
   13      H      -6.9106215551     1.0493589285     3.2257657845
   14      C      -5.2772717993     1.1013636528     4.5829672739
   15      H      -5.9174881404     1.1561420134     5.4551132761
   16      C      -3.1195891449     1.0169787483     3.5655355103
   17      C      -3.8686749773     1.0907632176     4.7366984072
   18      C      -1.7103330673     0.9920998877     3.5142800206
   19      C      -1.0209872773     1.0473436244     4.6993113924
   20      H       0.0614997549     1.0344675857     4.7307072206
   21      C      -1.7542836955     1.1243025549     5.9071380433
   22      H      -1.2065794553     1.1684444716     6.8399620299
   23      C      -3.1304021224     1.1457650332     5.9430642982
   24      H      -3.6470521019     1.2053283200     6.8932920428
   25      B      -1.2840399742     0.6618271162    -2.2571693560
   26      B       1.2464696111     0.6727163235    -0.7044094835
   27      C       1.2907623097     0.6176574499    -2.2318463270
   28      C       2.5247433021     0.5483488881    -2.9183715030
   29      H       3.4539358387     0.5295630461    -2.3572147965
   30      C       2.5642399146     0.5037168262    -4.2876265384
   31      C       3.6759080888     0.4371906786    -5.2377549736
   32      C       5.0452930651     0.3960069436    -5.1473844995
   33      H       5.5551600396     0.4087142980    -4.1918204428
   34      C       5.8017449958     0.3357332558    -6.3415710001
   35      H       6.8814594737     0.3035759069    -6.2671845581
   36      C       5.2209526583     0.3163376421    -7.5900156208
   37      H       5.8432346607     0.2699363924    -8.4756086413
   38      C       3.0931510191     0.4164768792    -6.5221934531
   39      C       3.8109216992     0.3572925604    -7.7148761166
   40      C       1.6850029994     0.4642867925    -6.4519332018
   41      C       0.9680297610     0.4521717345    -7.6241556949
   42      H      -0.1146505471     0.4874720091    -7.6316468497
   43      C       1.6731217378     0.3921573608    -8.8486368741
   44      H       1.1058163573     0.3830752992    -9.7710228776
   45      C       3.0476796846     0.3457380751    -8.9097908994
   46      H       3.5447229838     0.3007583241    -9.8713494915
   47      C       1.3468290445     0.5192182410    -5.0346695455
   48      C       0.1358872060     0.5710907053    -4.3873515484
   49      H      -0.7850028534     0.5719157450    -4.9628652679
   50      C       0.0722930139     0.6218740486    -2.9805317056
   51      C       2.6077883363     0.5643849713     0.0929566028
   52      C       2.9940279993    -0.6776607698     0.6558835387
   53      C       4.1995079297    -0.7958441988     1.3085351416
   54      H       4.5069208548    -1.7576638575     1.7007934352
   55      C       5.0724424096     0.3032808886     1.3939941855
   56      C       4.6977142051     1.5396754887     0.8360995274
   57      H       5.3532694491     2.3958028587     0.9395218008
   58      C       3.4783032770     1.6768682683     0.2131932627
   59      N       6.2937615402     0.1623168968     2.0074973268
   60      C       6.4394452076    -0.7041085769     3.1059682547
   61      C       7.5518426877    -1.5414962578     3.1920781305
   62      H       8.3028326402    -1.5365882752     2.4128535536
   63      C       7.6658584630    -2.4060364001     4.2652170022
   64      H       8.5184243481    -3.0685644548     4.3264609945
   65      C       6.6848895352    -2.4373204002     5.2496333392
   66      H       6.7795010900    -3.1178208620     6.0850771616
   67      C       5.5844157881    -1.5941721299     5.1629733286
   68      H       4.8263893612    -1.6069490253     5.9341389250
   69      C       5.4561035713    -0.7237309456     4.0962650066
   70      H       4.6101819007    -0.0506945294     4.0392800609
   71      C       7.4113482151     0.8625992839     1.5193594636
   72      C       8.3065677330     1.4540297845     2.4094099762
   73      H       8.1354062684     1.3950581602     3.4762741370
   74      C       9.3966318748     2.1432298922     1.9108510133
   75      H      10.0862991701     2.6170261710     2.5959109715
   76      C       9.5991856483     2.2405818674     0.5389071723
   77      H      10.4542209577     2.7818445257     0.1569650448
   78      C       8.7079087709     1.6412289256    -0.3421826775
   79      H       8.8715939948     1.7028739622    -1.4093995057
   80      C       7.6134849981     0.9479763415     0.1406774116
   81      H       6.9320506924     0.4556973487    -0.5414251313
   82      C       2.1382293704    -1.9063448797     0.4931121553
   83      H       2.3260685204    -2.5861812735     1.3275859664
   84      H       1.0832424909    -1.6345782360     0.5457282147
   85      C       3.0636889001     3.0290528518    -0.2994885988
   86      H       2.5461008498     2.9203563398    -1.2544779499
   87      H       3.9535683073     3.6314467247    -0.4956366768
   88      C       2.4066746547    -2.6354201329    -0.8228911793
   89      H       2.1774077365    -2.0048103478    -1.6811731621
   90      H       3.4503064145    -2.9439655112    -0.8988494198
   91      H       1.7864976462    -3.5290659727    -0.8946651468
   92      C       2.1560437239     3.7654323364     0.6836709052
   93      H       1.2354882051     3.2110349876     0.8637757643
   94      H       2.6533388332     3.9175855910     1.6425967257
   95      H       1.8796619363     4.7430466537     0.2888165196
   96      C      -2.6435670814     0.5693195000    -3.0699775256
   97      C      -3.2965651799    -0.6646701584    -3.2213424684
   98      C      -4.5172046445    -0.7472477265    -3.8802579666
   99      H      -5.0179421814    -1.7064261529    -3.9590441722
  100      C      -5.1064330324     0.3817312966    -4.4315817835
  101      C      -4.4529901150     1.6010502881    -4.3198672325
  102      H      -4.9005407804     2.4880769023    -4.7560379401
  103      C      -3.2455594098     1.7030729530    -3.6370995154
  104      N      -6.3621450982     0.3017631451    -5.0755417466
  105      C      -7.3746271356     1.2008242996    -4.7040501565
  106      C      -8.2269128661     1.7436927266    -5.6663560625
  107      H      -8.1025088356     1.4751098215    -6.7078798376
  108      C      -9.2303866965     2.6239199154    -5.2955272976
  109      H      -9.8824848092     3.0347548470    -6.0559209954
  110      C      -9.3908146003     2.9944542296    -3.9669672643
  111      H     -10.1708143582     3.6881506817    -3.6821990437
  112      C      -8.5363334669     2.4650014909    -3.0096848852
  113      H      -8.6504913596     2.7396213737    -1.9687902434
  114      C      -7.5419730606     1.5691137440    -3.3692213192
  115      H      -6.8910832761     1.1516538409    -2.6117350296
  116      C      -6.6361760897    -0.7535065360    -5.9555505325
  117      C      -7.8812462132    -1.3860476992    -5.9541467152
  118      H      -8.6496935180    -1.0668033871    -5.2619059857
  119      C      -8.1415852918    -2.4261769323    -6.8322682568
  120      H      -9.1140852581    -2.9017923963    -6.8136883603
  121      C      -7.1657404154    -2.8719381537    -7.7126379660
  122      H      -7.3697242176    -3.6896813892    -8.3911790345
  123      C      -5.9220681901    -2.2544683055    -7.7068423223
  124      H      -5.1490560724    -2.5859680148    -8.3885754226
  125      C      -5.6582181870    -1.2011089485    -6.8466923644
  126      H      -4.6871591130    -0.7232208424    -6.8627631464
  127      C      -2.6882440925    -1.9455727774    -2.7102966866
  128      H      -2.0544419296    -1.7462344076    -1.8438914420
  129      H      -3.4802891066    -2.6150504855    -2.3634024180
  130      C      -2.6369320036     3.0719012950    -3.4821823558
  131      H      -1.5570174947     2.9933291801    -3.3400834425
  132      H      -2.7843333083     3.6446736968    -4.4020733937
  133      C      -1.8689060307    -2.6545347445    -3.7872050185
  134      H      -1.0561323893    -2.0195809155    -4.1405954892
  135      H      -1.4293685995    -3.5762344952    -3.4028584440
  136      H      -2.4892993304    -2.9129797844    -4.6470937317
  137      C      -3.2504953936     3.8354042088    -2.3104757184
  138      H      -3.0799070035     3.3099445775    -1.3703796415
  139      H      -2.8170351484     4.8323163310    -2.2189945084
  140      H      -4.3283833700     3.9481564253    -2.4381996561
 ----------------------------------------------------------------

   17   -3084.7390141999      9.42E-09 Convergence criterion met
 Total energy in the final basis set = -3084.73901420
 Final energy is   -3084.73901419995
 **  OPTIMIZATION CONVERGED  **

                    Orbital Energies (a.u.)
 --------------------------------------------------------------

 Alpha MOs
 -- Occupied --
-14.770 -14.663 -10.535 -10.532 -10.531 -10.486 -10.486 -10.486
-10.486 -10.486 -10.486 -10.479 -10.479 -10.477 -10.477 -10.477
-10.477 -10.476 -10.476 -10.475 -10.475 -10.472 -10.461 -10.453
-10.453 -10.451 -10.450 -10.450 -10.450 -10.449 -10.448 -10.448
-10.448 -10.448 -10.447 -10.447 -10.447 -10.447 -10.446 -10.446
-10.446 -10.444 -10.443 -10.443 -10.442 -10.441 -10.440 -10.440
-10.439 -10.439 -10.439 -10.438 -10.438 -10.438 -10.438 -10.437
-10.436 -10.436 -10.436 -10.436 -10.436 -10.435 -10.435 -10.431
-10.430 -10.424 -10.424 -10.421 -10.420 -10.420 -10.420 -10.410
-10.410 -10.409 -10.409 -10.406 -10.406 -10.406  -6.902  -6.900
 -1.159  -1.072  -1.000  -1.000  -1.000  -0.997  -0.976  -0.955
 -0.951  -0.942  -0.940  -0.932  -0.920  -0.920  -0.909  -0.901
 -0.890  -0.888  -0.880  -0.876  -0.874  -0.874  -0.856  -0.847
 -0.846  -0.838  -0.837  -0.834  -0.834  -0.833  -0.832  -0.824
 -0.822  -0.812  -0.803  -0.797  -0.796  -0.788  -0.784  -0.781
 -0.751  -0.751  -0.725  -0.719  -0.718  -0.717  -0.714  -0.712
 -0.706  -0.704  -0.704  -0.700  -0.692  -0.688  -0.675  -0.674
 -0.672  -0.667  -0.664  -0.657  -0.655  -0.647  -0.638  -0.632
 -0.628  -0.628  -0.620  -0.618  -0.599  -0.597  -0.588  -0.586
 -0.583  -0.580  -0.579  -0.578  -0.574  -0.568  -0.560  -0.560
 -0.557  -0.554  -0.552  -0.545  -0.544  -0.536  -0.530  -0.527
 -0.527  -0.526  -0.520  -0.516  -0.516  -0.513  -0.512  -0.510
 -0.507  -0.506  -0.502  -0.493  -0.492  -0.491  -0.490  -0.489
 -0.487  -0.485  -0.483  -0.479  -0.477  -0.476  -0.475  -0.475
 -0.474  -0.472  -0.471  -0.471  -0.470  -0.468  -0.465  -0.463
 -0.463  -0.456  -0.454  -0.451  -0.450  -0.447  -0.443  -0.442
 -0.441  -0.440  -0.437  -0.430  -0.430  -0.428  -0.426  -0.426
 -0.424  -0.420  -0.417  -0.417  -0.415  -0.415  -0.412  -0.408
 -0.406  -0.401  -0.398  -0.397  -0.394  -0.392  -0.390  -0.389
 -0.389  -0.385  -0.385  -0.384  -0.381  -0.380  -0.379  -0.376
 -0.375  -0.371  -0.358  -0.357  -0.354  -0.348  -0.346  -0.340
 -0.335  -0.334  -0.333  -0.326  -0.320  -0.313  -0.308  -0.307
 -0.301  -0.299  -0.295  -0.289  -0.287  -0.285  -0.275  -0.271
 -0.269  -0.262  -0.253  -0.243  -0.239  -0.214  -0.149

 Beta MOs
 -- Occupied --
-14.759 -14.663 -10.535 -10.533 -10.533 -10.486 -10.486 -10.484
-10.484 -10.484 -10.484 -10.478 -10.478 -10.477 -10.477 -10.477
-10.477 -10.476 -10.476 -10.475 -10.474 -10.472 -10.457 -10.454
-10.453 -10.451 -10.451 -10.450 -10.449 -10.449 -10.449 -10.448
-10.447 -10.447 -10.447 -10.447 -10.447 -10.446 -10.446 -10.445
-10.445 -10.444 -10.443 -10.443 -10.442 -10.440 -10.440 -10.440
-10.439 -10.439 -10.439 -10.438 -10.438 -10.438 -10.436 -10.436
-10.436 -10.436 -10.435 -10.435 -10.435 -10.435 -10.435 -10.432
-10.431 -10.424 -10.424 -10.421 -10.421 -10.420 -10.420 -10.410
-10.409 -10.409 -10.409 -10.407 -10.405 -10.405  -6.899  -6.897
 -1.143  -1.072  -1.000  -0.999  -0.997  -0.993  -0.972  -0.955
 -0.951  -0.941  -0.939  -0.931  -0.919  -0.919  -0.908  -0.897
 -0.889  -0.886  -0.880  -0.876  -0.872  -0.872  -0.856  -0.846
 -0.843  -0.837  -0.836  -0.834  -0.833  -0.833  -0.832  -0.821
 -0.814  -0.812  -0.800  -0.796  -0.795  -0.788  -0.782  -0.781
 -0.748  -0.746  -0.721  -0.717  -0.716  -0.715  -0.712  -0.711
 -0.706  -0.703  -0.703  -0.700  -0.692  -0.688  -0.675  -0.673
 -0.669  -0.666  -0.663  -0.654  -0.654  -0.645  -0.636  -0.632
 -0.627  -0.627  -0.618  -0.618  -0.599  -0.595  -0.583  -0.582
 -0.579  -0.578  -0.577  -0.573  -0.572  -0.567  -0.559  -0.558
 -0.555  -0.554  -0.550  -0.544  -0.543  -0.535  -0.529  -0.526
 -0.526  -0.525  -0.518  -0.516  -0.515  -0.512  -0.511  -0.509
 -0.506  -0.505  -0.500  -0.493  -0.492  -0.490  -0.489  -0.486
 -0.485  -0.483  -0.480  -0.477  -0.477  -0.475  -0.474  -0.473
 -0.472  -0.470  -0.470  -0.469  -0.468  -0.465  -0.462  -0.462
 -0.460  -0.456  -0.452  -0.450  -0.449  -0.444  -0.440  -0.440
 -0.439  -0.436  -0.436  -0.430  -0.430  -0.427  -0.426  -0.423
 -0.421  -0.420  -0.416  -0.415  -0.415  -0.411  -0.410  -0.407
 -0.406  -0.400  -0.397  -0.393  -0.392  -0.391  -0.389  -0.388
 -0.384  -0.383  -0.382  -0.381  -0.380  -0.378  -0.375  -0.375
 -0.373  -0.369  -0.357  -0.354  -0.349  -0.345  -0.344  -0.334
 -0.332  -0.328  -0.326  -0.322  -0.318  -0.302  -0.301  -0.299
 -0.297  -0.296  -0.295  -0.289  -0.283  -0.283  -0.273  -0.262
 -0.259  -0.245  -0.240  -0.232  -0.214

          Ground-State Mulliken Net Atomic Charges

     Atom                 Charge (a.u.)    Spin (a.u.)
  --------------------------------------------------------
      1 C                    -0.131341       0.015596
      2 C                    -0.413570      -0.008619
      3 H                     0.209194      -0.001109
      4 C                     0.081929       0.033236
      5 C                     0.063276       0.094679
      6 C                    -0.405654      -0.059172
      7 H                     0.227123       0.002365
      8 C                    -0.143708       0.061999
      9 C                     0.179429      -0.057466
     10 C                    -0.402584       0.085669
     11 H                     0.235086      -0.005017
     12 C                    -0.226148      -0.052854
     13 H                     0.241190       0.002546
     14 C                    -0.358834       0.078356
     15 H                     0.236004      -0.004624
     16 C                    -0.077831       0.023018
     17 C                     0.229498      -0.037187
     18 C                     0.180566      -0.041574
     19 C                    -0.409855       0.065905
     20 H                     0.225390      -0.003889
     21 C                    -0.224951      -0.044085
     22 H                     0.237831       0.002177
     23 C                    -0.360875       0.061467
     24 H                     0.236715      -0.003577
     25 B                     0.531326       0.281516
     26 B                     0.510214       0.338915
     27 C                    -0.131776       0.020353
     28 C                    -0.404325      -0.012336
     29 H                     0.206436      -0.001158
     30 C                     0.073637       0.036898
     31 C                     0.186238      -0.043636
     32 C                    -0.409075       0.069199
     33 H                     0.222405      -0.004098
     34 C                    -0.224446      -0.046071
     35 H                     0.236957       0.002274
     36 C                    -0.360387       0.064619
     37 H                     0.236556      -0.003763
     38 C                    -0.080436       0.023946
     39 C                     0.227284      -0.038589
     40 C                     0.178906      -0.058527
     41 C                    -0.402860       0.087551
     42 H                     0.236209      -0.005123
     43 C                    -0.225624      -0.054130
     44 H                     0.241741       0.002609
     45 C                    -0.358899       0.080165
     46 H                     0.235885      -0.004729
     47 C                     0.067749       0.094976
     48 C                    -0.408296      -0.059003
     49 H                     0.226633       0.002341
     50 C                    -0.141305       0.063147
     51 C                    -0.144176       0.300020
     52 C                     0.060381      -0.112797
     53 C                    -0.345609       0.149673
     54 H                     0.281813      -0.007642
     55 C                     0.310542       0.010604
     56 C                    -0.346978       0.146325
     57 H                     0.281402      -0.007392
     58 C                     0.073161      -0.109012
     59 N                    -0.571916       0.376733
     60 C                     0.262001      -0.077688
     61 C                    -0.261659       0.108168
     62 H                     0.286181      -0.005601
     63 C                    -0.233825      -0.074199
     64 H                     0.268543       0.003747
     65 C                    -0.227190       0.129630
     66 H                     0.268102      -0.007093
     67 C                    -0.233070      -0.079149
     68 H                     0.269786       0.004185
     69 C                    -0.260633       0.113389
     70 H                     0.291206      -0.005737
     71 C                     0.261498      -0.077296
     72 C                    -0.262153       0.107194
     73 H                     0.285820      -0.005542
     74 C                    -0.234140      -0.073747
     75 H                     0.268407       0.003695
     76 C                    -0.226907       0.128992
     77 H                     0.268112      -0.007059
     78 C                    -0.233374      -0.078789
     79 H                     0.269407       0.004219
     80 C                    -0.258832       0.113369
     81 H                     0.291002      -0.005759
     82 C                    -0.549318       0.010007
     83 H                     0.239319      -0.000164
     84 H                     0.280016      -0.002916
     85 C                    -0.543430       0.009994
     86 H                     0.276900      -0.002748
     87 H                     0.238861      -0.000242
     88 C                    -0.661213      -0.002494
     89 H                     0.260979      -0.000620
     90 H                     0.212178      -0.000014
     91 H                     0.233156      -0.000711
     92 C                    -0.662610      -0.002326
     93 H                     0.258354      -0.000556
     94 H                     0.213103       0.000005
     95 H                     0.234863      -0.000611
     96 C                    -0.192927      -0.026887
     97 C                     0.045988       0.004159
     98 C                    -0.358938      -0.001464
     99 H                     0.235903       0.000372
    100 C                     0.286960       0.001466
    101 C                    -0.353080      -0.001486
    102 H                     0.234335       0.000388
    103 C                     0.053169       0.004062
    104 N                    -0.672331       0.000015
    105 C                     0.292105      -0.000013
    106 C                    -0.289862       0.000048
    107 H                     0.256624      -0.000002
    108 C                    -0.237091      -0.000037
    109 H                     0.240467       0.000002
    110 C                    -0.261316       0.000053
    111 H                     0.237525      -0.000003
    112 C                    -0.236438      -0.000037
    113 H                     0.241010       0.000003
    114 C                    -0.292180       0.000049
    115 H                     0.257253      -0.000004
    116 C                     0.305705      -0.000020
    117 C                    -0.303767       0.000052
    118 H                     0.256858      -0.000003
    119 C                    -0.235025      -0.000039
    120 H                     0.239647       0.000002
    121 C                    -0.265031       0.000057
    122 H                     0.236163      -0.000003
    123 C                    -0.234565      -0.000040
    124 H                     0.240298       0.000003
    125 C                    -0.296902       0.000051
    126 H                     0.257683      -0.000004
    127 C                    -0.543711       0.003531
    128 H                     0.257969      -0.002453
    129 H                     0.229116       0.000358
    130 C                    -0.541321       0.003262
    131 H                     0.255111      -0.002014
    132 H                     0.228572       0.000349
    133 C                    -0.655424      -0.000279
    134 H                     0.242356      -0.000200
    135 H                     0.217454       0.000014
    136 H                     0.215606      -0.000055
    137 C                    -0.656380      -0.000260
    138 H                     0.240469      -0.000182
    139 H                     0.218904       0.000011
    140 H                     0.216349      -0.000054
  --------------------------------------------------------
  Sum of atomic charges =    -0.000000

                    Cartesian Multipole Moments
 -----------------------------------------------------------------
    Charge (ESU x 10^10)
                -0.0000
    Dipole Moment (Debye)
         X      24.6216      Y      -1.8366      Z      13.8166
       Tot      28.2930
    Quadrupole Moments (Debye-Ang)
        XX    -285.8569     XY       6.1240     YY    -456.5766
        XZ      48.7098     YZ      -5.0229     ZZ    -440.0447

 Total job time:  101521.60s(wall), 294583.22s(cpu)
        *  Thank you very much for using Q-Chem.  Have a nice day.  *
