 Q-Chem 5.0, Q-Chem, Inc., Pleasanton, CA (2017)
 Q-Chem 5.0.1 for Intel X86 EM64T Linux

User input:
--------------------------------------------------------------
$rem
threads 8
jobtype opt
method PBEh-3c
basis def2-mSVP
mem_static      1024
mem_total       8000
sym_ignore      true
unrestricted true
scf_algorithm	diis
scf_max_cycles	250
solvent_method  pcm
geom_opt_tol_energy 25
geom_opt_tol_gradient 75
$end

$pcm
theory  iefpcm
$end

$solvent
dielectric      2.38
$end

$molecule
read utLEincoords.mol
$end
--------------------------------------------------------------

   22   -3084.7162506292      7.75E-09 Convergence criterion met
 Total energy in the final basis set = -3084.71625063
   20   -3084.7232554524      8.43E-09 Convergence criterion met
 Total energy in the final basis set = -3084.72325545
   18   -3084.7245026869      6.57E-09 Convergence criterion met
 Total energy in the final basis set = -3084.72450269
   20   -3084.7245990190      7.29E-09 Convergence criterion met
 Total energy in the final basis set = -3084.72459902
   16   -3084.7244298115      8.42E-09 Convergence criterion met
 Total energy in the final basis set = -3084.72442981
   17   -3084.7251438780      7.33E-09 Convergence criterion met
 Total energy in the final basis set = -3084.72514388
   16   -3084.7250962153      9.06E-09 Convergence criterion met
 Total energy in the final basis set = -3084.72509622
   16   -3084.7251402905      9.67E-09 Convergence criterion met
   16   -3084.7253044012      9.62E-09 Convergence criterion met
 Total energy in the final basis set = -3084.72530440
   16   -3084.7253181785      9.55E-09 Convergence criterion met
 Total energy in the final basis set = -3084.72531818
   16   -3084.7253088526      9.26E-09 Convergence criterion met
 Total energy in the final basis set = -3084.72530885
   16   -3084.7253052783      9.31E-09 Convergence criterion met
 Total energy in the final basis set = -3084.72530528
   16   -3084.7253076563      9.34E-09 Convergence criterion met
 Total energy in the final basis set = -3084.72530766
   16   -3084.7253027294      9.35E-09 Convergence criterion met
 Total energy in the final basis set = -3084.72530273

             Standard Nuclear Orientation (Angstroms)
    I     Atom           X                Y                Z
 ----------------------------------------------------------------
    1      C      -0.0850591555     0.7577586593     0.0338295727
    2      C      -0.1384105847     0.8369748226     1.4455244839
    3      H       0.7848271985     0.8509527634     2.0181000304
    4      C      -1.3430870414     0.8947563734     2.1005528063
    5      C      -2.5551190801     0.8695044515     1.3494462318
    6      C      -2.5250529132     0.7960092913    -0.0219090369
    7      H      -3.4529349236     0.7759707420    -0.5845625038
    8      C      -1.3022129396     0.7424892011    -0.7158052733
    9      C      -3.6728701015     0.9307010774     2.2815998833
   10      C      -5.0406286664     0.9342591111     2.1600112937
   11      H      -5.5272896765     0.8852641643     1.1934852618
   12      C      -5.8227717388     1.0026700615     3.3357408492
   13      H      -6.9012508936     1.0040758038     3.2391204210
   14      C      -5.2659941723     1.0674252707     4.5928030188
   15      H      -5.9050479835     1.1189977146     5.4659593206
   16      C      -3.1103223100     0.9952245764     3.5715994976
   17      C      -3.8573579564     1.0654912750     4.7438639206
   18      C      -1.7013748439     0.9783452499     3.5174241539
   19      C      -1.0105231045     1.0390668963     4.7007504801
   20      H       0.0720951018     1.0332492046     4.7296899390
   21      C      -1.7413555099     1.1129611905     5.9098633442
   22      H      -1.1923418419     1.1618116750     6.8417050532
   23      C      -3.1170839979     1.1260241805     5.9482658841
   24      H      -3.6320715728     1.1835212874     6.8995096072
   25      B      -1.2844749973     0.6488561677    -2.2542592360
   26      B       1.2453459286     0.6683532268    -0.7095173852
   27      C       1.2902140865     0.6104175083    -2.2353626883
   28      C       2.5228240140     0.5414895816    -2.9248686288
   29      H       3.4538028402     0.5262488989    -2.3662135676
   30      C       2.5590103946     0.4928883752    -4.2934625975
   31      C       3.6683416277     0.4266409631    -5.2464740867
   32      C       5.0376612551     0.3887563542    -5.1602640995
   33      H       5.5498257335     0.4042989233    -4.2059652503
   34      C       5.7911382876     0.3281629151    -6.3558630712
   35      H       6.8711784365     0.2984823409    -6.2847828622
   36      C       5.2069521243     0.3053592301    -7.6022084295
   37      H       5.8270026293     0.2589356094    -8.4893486973
   38      C       3.0824704978     0.4020778873    -6.5290855806
   39      C       3.7969108009     0.3427972956    -7.7233755592
   40      C       1.6746288671     0.4469216569    -6.4546984783
   41      C       0.9548621499     0.4316937981    -7.6247178204
   42      H      -0.1278075635     0.4650127667    -7.6289014636
   43      C       1.6564268973     0.3715165361    -8.8508296868
   44      H       1.0865884268     0.3600804161    -9.7716010410
   45      C       3.0304563567     0.3279328729    -8.9158567479
   46      H       3.5246993172     0.2828290588    -9.8788197786
   47      C       1.3400576331     0.5038808917    -5.0371305665
   48      C       0.1306804478     0.5546416921    -4.3869419450
   49      H      -0.7921515675     0.5518072246    -4.9591662758
   50      C       0.0704041615     0.6092389868    -2.9807897468
   51      C       2.6068799049     0.5641746763     0.0853590904
   52      C       2.9931669736    -0.6763264108     0.6584732813
   53      C       4.1959008083    -0.7888782361     1.3131874680
   54      H       4.5024427704    -1.7474826423     1.7136561319
   55      C       5.0718876361     0.3110848529     1.3914636705
   56      C       4.6978006376     1.5444066125     0.8209897583
   57      H       5.3542244377     2.4004735617     0.9184841969
   58      C       3.4803948307     1.6786088962     0.1974801907
   59      N       6.2881613270     0.1750281812     2.0085080131
   60      C       6.4387113195    -0.7033954791     3.0998973562
   61      C       7.5505207965    -1.5408826000     3.1745180676
   62      H       8.2990379245    -1.5269473582     2.3929912251
   63      C       7.6700969361    -2.4135501595     4.2409181349
   64      H       8.5235155778    -3.0757290276     4.2934961965
   65      C       6.6942239463    -2.4529952860     5.2293731841
   66      H       6.7926992357    -3.1400332327     6.0589257074
   67      C       5.5939521131    -1.6094517177     5.1540378004
   68      H       4.8386894535    -1.6288268406     5.9277654061
   69      C       5.4616114923    -0.7301599728     4.0947154853
   70      H       4.6142724741    -0.0583055788     4.0449970110
   71      C       7.4050281910     0.8922788265     1.5375516851
   72      C       8.2785862037     1.4938761694     2.4407414605
   73      H       8.0927588780     1.4286040225     3.5048203340
   74      C       9.3679542227     2.1970995547     1.9598214254
   75      H      10.0414967837     2.6779061706     2.6559500094
   76      C       9.5902486093     2.2991910950     0.5918096741
   77      H      10.4437620285     2.8520661480     0.2234837986
   78      C       8.7203687404     1.6895960551    -0.3026649279
   79      H       8.8985121538     1.7555086838    -1.3672943858
   80      C       7.6280463497     0.9810447609     0.1632985294
   81      H       6.9616682154     0.4828290225    -0.5293631062
   82      C       2.1364557207    -1.9042375766     0.5003935838
   83      H       2.3314332679    -2.5855943313     1.3321669335
   84      H       1.0822698023    -1.6318037111     0.5622785960
   85      C       3.0653161477     3.0250622348    -0.3280517246
   86      H       2.5633479947     2.9067150559    -1.2901279879
   87      H       3.9547222785     3.6316160027    -0.5141015578
   88      C       2.3937237643    -2.6299127830    -0.8199926644
   89      H       2.1528741249    -1.9995019276    -1.6749866435
   90      H       3.4371034710    -2.9362250205    -0.9078299560
   91      H       1.7746615679    -3.5245900468    -0.8858178191
   92      C       2.1371919495     3.7611310481     0.6362896916
   93      H       1.2159756742     3.2041064427     0.8031911230
   94      H       2.6169362892     3.9221245796     1.6026952580
   95      H       1.8627180521     4.7346297578     0.2305162085
   96      C      -2.6445021888     0.5612858566    -3.0652349433
   97      C      -3.3081465637    -0.6676649035    -3.2086658117
   98      C      -4.5277542545    -0.7434704578    -3.8697657766
   99      H      -5.0374233795    -1.6982338837    -3.9441033974
  100      C      -5.1049008688     0.3868411194    -4.4304155178
  101      C      -4.4414441129     1.6009438921    -4.3251792292
  102      H      -4.8811058744     2.4886536648    -4.7677136300
  103      C      -3.2349985743     1.6968146581    -3.6403934584
  104      N      -6.3600211738     0.3130969869    -5.0769163093
  105      C      -7.3659570087     1.2215279552    -4.7129306136
  106      C      -8.2175935485     1.7595926328    -5.6784637912
  107      H      -8.0971135490     1.4788598379    -6.7171467669
  108      C      -9.2143871848     2.6495803163    -5.3143612306
  109      H      -9.8658429455     3.0563625341    -6.0774435020
  110      C      -9.3690748964     3.0353585202    -3.9898427144
  111      H     -10.1439093146     3.7369130115    -3.7104904632
  112      C      -8.5152313271     2.5110540647    -3.0296688287
  113      H      -8.6244920600     2.7978954911    -1.9915838540
  114      C      -7.5275789071     1.6054990670    -3.3818881330
  115      H      -6.8761172217     1.1926523763    -2.6225308740
  116      C      -6.6373573563    -0.7422388253    -5.9552482660
  117      C      -7.8870630375    -1.3652365202    -5.9594044984
  118      H      -8.6564931280    -1.0373985677    -5.2724106328
  119      C      -8.1500390287    -2.4056417180    -6.8358472792
  120      H      -9.1261996918    -2.8737810423    -6.8216080264
  121      C      -7.1727532218    -2.8615421665    -7.7088291957
  122      H      -7.3789836326    -3.6797065110    -8.3860951564
  123      C      -5.9246108783    -2.2540418275    -7.6970519841
  124      H      -5.1500076867    -2.5940158152    -8.3727163888
  125      C      -5.6576086487    -1.2005445979    -6.8386534871
  126      H      -4.6827912525    -0.7304487901    -6.8485876774
  127      C      -2.7125889792    -1.9499327907    -2.6864427924
  128      H      -2.0907290898    -1.7520586819    -1.8110986791
  129      H      -3.5130751163    -2.6143339459    -2.3492078905
  130      C      -2.6154634212     3.0610766050    -3.4896809454
  131      H      -1.5354072409     2.9751039310    -3.3535478808
  132      H      -2.7635840077     3.6341955311    -4.4092657436
  133      C      -1.8817394581    -2.6653664872    -3.7501419679
  134      H      -1.0538340937    -2.0403094222    -4.0853513802
  135      H      -1.4616109581    -3.5942534122    -3.3612438071
  136      H      -2.4888601534    -2.9122718908    -4.6227062611
  137      C      -3.2174876592     3.8286616235    -2.3146549365
  138      H      -3.0432863076     3.3031781362    -1.3753398018
  139      H      -2.7782078448     4.8233608121    -2.2264925566
  140      H      -4.2955557971     3.9468647359    -2.4354320171
 ----------------------------------------------------------------

   16   -3084.7252996336      9.40E-09 Convergence criterion met
 Total energy in the final basis set = -3084.72529963
 Final energy is   -3084.72529963357
 **  OPTIMIZATION CONVERGED  **

                    Orbital Energies (a.u.)
 --------------------------------------------------------------

 Alpha MOs
 -- Occupied --
-14.772 -14.658 -10.542 -10.537 -10.537 -10.492 -10.492 -10.492
-10.492 -10.485 -10.485 -10.483 -10.483 -10.483 -10.482 -10.482
-10.481 -10.481 -10.481 -10.480 -10.479 -10.466 -10.466 -10.449
-10.449 -10.448 -10.447 -10.446 -10.446 -10.446 -10.445 -10.445
-10.444 -10.443 -10.443 -10.443 -10.443 -10.442 -10.442 -10.442
-10.441 -10.441 -10.440 -10.440 -10.439 -10.439 -10.438 -10.436
-10.436 -10.436 -10.435 -10.434 -10.434 -10.434 -10.432 -10.432
-10.432 -10.432 -10.432 -10.431 -10.431 -10.430 -10.430 -10.426
-10.425 -10.422 -10.420 -10.418 -10.418 -10.415 -10.414 -10.406
-10.406 -10.404 -10.404 -10.401 -10.401 -10.401  -6.899  -6.895
 -1.163  -1.067  -1.005  -1.003  -0.996  -0.996  -0.981  -0.951
 -0.946  -0.938  -0.936  -0.927  -0.916  -0.916  -0.913  -0.905
 -0.896  -0.884  -0.880  -0.879  -0.876  -0.871  -0.851  -0.850
 -0.841  -0.834  -0.833  -0.830  -0.830  -0.830  -0.827  -0.826
 -0.824  -0.807  -0.799  -0.794  -0.792  -0.782  -0.780  -0.776
 -0.756  -0.755  -0.729  -0.723  -0.722  -0.714  -0.711  -0.709
 -0.708  -0.701  -0.700  -0.695  -0.687  -0.683  -0.676  -0.671
 -0.670  -0.663  -0.660  -0.660  -0.654  -0.644  -0.642  -0.629
 -0.624  -0.624  -0.623  -0.613  -0.603  -0.595  -0.593  -0.589
 -0.586  -0.577  -0.576  -0.574  -0.570  -0.565  -0.562  -0.558
 -0.556  -0.554  -0.550  -0.548  -0.540  -0.536  -0.534  -0.531
 -0.527  -0.523  -0.522  -0.522  -0.514  -0.512  -0.511  -0.508
 -0.508  -0.502  -0.499  -0.494  -0.491  -0.488  -0.488  -0.487
 -0.484  -0.483  -0.481  -0.477  -0.475  -0.473  -0.473  -0.471
 -0.470  -0.470  -0.468  -0.467  -0.466  -0.466  -0.466  -0.460
 -0.459  -0.458  -0.452  -0.451  -0.451  -0.448  -0.447  -0.446
 -0.440  -0.437  -0.435  -0.435  -0.431  -0.425  -0.424  -0.421
 -0.420  -0.416  -0.415  -0.413  -0.412  -0.410  -0.409  -0.405
 -0.402  -0.400  -0.398  -0.393  -0.392  -0.391  -0.389  -0.385
 -0.384  -0.383  -0.381  -0.381  -0.380  -0.377  -0.374  -0.372
 -0.371  -0.367  -0.354  -0.352  -0.350  -0.347  -0.346  -0.341
 -0.340  -0.336  -0.330  -0.328  -0.316  -0.314  -0.312  -0.302
 -0.296  -0.294  -0.290  -0.285  -0.283  -0.281  -0.276  -0.268
 -0.265  -0.257  -0.248  -0.238  -0.234  -0.209  -0.145

 Beta MOs
 -- Occupied --
-14.762 -14.658 -10.542 -10.538 -10.538 -10.490 -10.490 -10.490
-10.490 -10.484 -10.484 -10.484 -10.484 -10.483 -10.483 -10.481
-10.481 -10.481 -10.480 -10.479 -10.479 -10.466 -10.462 -10.450
-10.449 -10.447 -10.447 -10.447 -10.446 -10.446 -10.446 -10.444
-10.444 -10.444 -10.443 -10.443 -10.443 -10.442 -10.442 -10.441
-10.441 -10.441 -10.440 -10.440 -10.439 -10.439 -10.438 -10.436
-10.436 -10.435 -10.435 -10.434 -10.434 -10.434 -10.432 -10.432
-10.431 -10.431 -10.431 -10.430 -10.430 -10.430 -10.430 -10.427
-10.426 -10.422 -10.421 -10.418 -10.418 -10.415 -10.414 -10.406
-10.406 -10.404 -10.404 -10.401 -10.400 -10.400  -6.896  -6.893
 -1.147  -1.067  -1.003  -0.999  -0.995  -0.995  -0.976  -0.951
 -0.946  -0.937  -0.935  -0.927  -0.915  -0.915  -0.912  -0.901
 -0.894  -0.883  -0.879  -0.878  -0.876  -0.870  -0.851  -0.847
 -0.841  -0.833  -0.832  -0.830  -0.829  -0.829  -0.827  -0.824
 -0.817  -0.807  -0.796  -0.792  -0.791  -0.782  -0.778  -0.776
 -0.753  -0.750  -0.725  -0.721  -0.720  -0.712  -0.709  -0.707
 -0.707  -0.701  -0.699  -0.695  -0.687  -0.683  -0.674  -0.671
 -0.669  -0.662  -0.659  -0.658  -0.651  -0.641  -0.640  -0.628
 -0.624  -0.623  -0.622  -0.613  -0.600  -0.595  -0.589  -0.582
 -0.578  -0.576  -0.575  -0.573  -0.568  -0.564  -0.560  -0.557
 -0.555  -0.553  -0.550  -0.546  -0.539  -0.535  -0.532  -0.531
 -0.525  -0.522  -0.522  -0.521  -0.512  -0.511  -0.510  -0.508
 -0.507  -0.501  -0.497  -0.490  -0.488  -0.488  -0.487  -0.485
 -0.482  -0.481  -0.478  -0.475  -0.473  -0.472  -0.471  -0.471
 -0.470  -0.467  -0.466  -0.465  -0.465  -0.465  -0.464  -0.459
 -0.459  -0.457  -0.451  -0.450  -0.449  -0.446  -0.443  -0.442
 -0.440  -0.436  -0.434  -0.433  -0.425  -0.425  -0.423  -0.421
 -0.419  -0.415  -0.414  -0.412  -0.410  -0.407  -0.407  -0.404
 -0.402  -0.397  -0.393  -0.393  -0.391  -0.389  -0.384  -0.384
 -0.383  -0.380  -0.378  -0.378  -0.377  -0.376  -0.374  -0.371
 -0.369  -0.366  -0.352  -0.350  -0.345  -0.342  -0.341  -0.339
 -0.334  -0.330  -0.327  -0.320  -0.314  -0.307  -0.299  -0.296
 -0.294  -0.292  -0.290  -0.284  -0.279  -0.279  -0.268  -0.257
 -0.255  -0.241  -0.235  -0.227  -0.209

          Ground-State Mulliken Net Atomic Charges

     Atom                 Charge (a.u.)    Spin (a.u.)
  --------------------------------------------------------
      1 C                    -0.129315       0.008390
      2 C                    -0.411058      -0.000451
      3 H                     0.198080      -0.001649
      4 C                     0.088878       0.024391
      5 C                     0.069656       0.100590
      6 C                    -0.402073      -0.062985
      7 H                     0.225212       0.002599
      8 C                    -0.143208       0.067312
      9 C                     0.185814      -0.058319
     10 C                    -0.397807       0.086183
     11 H                     0.227038      -0.005072
     12 C                    -0.217895      -0.052827
     13 H                     0.232511       0.002557
     14 C                    -0.354441       0.078638
     15 H                     0.226213      -0.004678
     16 C                    -0.076478       0.022576
     17 C                     0.239113      -0.036378
     18 C                     0.187157      -0.038720
     19 C                    -0.405590       0.062014
     20 H                     0.212559      -0.003692
     21 C                    -0.216641      -0.042094
     22 H                     0.227359       0.002104
     23 C                    -0.356436       0.058138
     24 H                     0.226930      -0.003399
     25 B                     0.544033       0.274470
     26 B                     0.509561       0.349392
     27 C                    -0.129414       0.013782
     28 C                    -0.401634      -0.004161
     29 H                     0.194909      -0.001716
     30 C                     0.080455       0.027994
     31 C                     0.193012      -0.041108
     32 C                    -0.404506       0.065944
     33 H                     0.208364      -0.003944
     34 C                    -0.215945      -0.044554
     35 H                     0.226066       0.002227
     36 C                    -0.356000       0.061949
     37 H                     0.226759      -0.003625
     38 C                    -0.079205       0.023844
     39 C                     0.236916      -0.038276
     40 C                     0.185208      -0.060120
     41 C                    -0.398178       0.089304
     42 H                     0.228509      -0.005251
     43 C                    -0.217381      -0.054834
     44 H                     0.233096       0.002654
     45 C                    -0.354530       0.081668
     46 H                     0.226082      -0.004857
     47 C                     0.074054       0.102533
     48 C                    -0.404652      -0.063701
     49 H                     0.224991       0.002612
     50 C                    -0.141413       0.069797
     51 C                    -0.138643       0.327326
     52 C                     0.066571      -0.105539
     53 C                    -0.348534       0.140253
     54 H                     0.276520      -0.007316
     55 C                     0.316365       0.038251
     56 C                    -0.349812       0.137332
     57 H                     0.275918      -0.007091
     58 C                     0.079502      -0.101324
     59 N                    -0.579181       0.352309
     60 C                     0.259824      -0.074314
     61 C                    -0.259946       0.097885
     62 H                     0.278324      -0.005115
     63 C                    -0.228476      -0.066643
     64 H                     0.261438       0.003376
     65 C                    -0.223689       0.115414
     66 H                     0.261213      -0.006352
     67 C                    -0.227787      -0.071754
     68 H                     0.263561       0.003862
     69 C                    -0.259141       0.103067
     70 H                     0.284782      -0.005263
     71 C                     0.259479      -0.074064
     72 C                    -0.260553       0.097253
     73 H                     0.277833      -0.005077
     74 C                    -0.228734      -0.066377
     75 H                     0.261275       0.003338
     76 C                    -0.223474       0.115080
     77 H                     0.261257      -0.006335
     78 C                    -0.228011      -0.071547
     79 H                     0.263293       0.003899
     80 C                    -0.257566       0.103209
     81 H                     0.284721      -0.005290
     82 C                    -0.549731       0.009380
     83 H                     0.233810      -0.000006
     84 H                     0.286944      -0.002745
     85 C                    -0.543705       0.009378
     86 H                     0.283494      -0.002524
     87 H                     0.233311      -0.000154
     88 C                    -0.658498      -0.002032
     89 H                     0.268728      -0.000699
     90 H                     0.207535      -0.000032
     91 H                     0.232805      -0.000647
     92 C                    -0.660313      -0.001808
     93 H                     0.265866      -0.000660
     94 H                     0.208659       0.000005
     95 H                     0.234660      -0.000510
     96 C                    -0.195176      -0.026512
     97 C                     0.051612       0.004302
     98 C                    -0.354983      -0.001542
     99 H                     0.232032       0.000372
    100 C                     0.285300       0.001609
    101 C                    -0.348637      -0.001567
    102 H                     0.230160       0.000387
    103 C                     0.057132       0.004178
    104 N                    -0.672772       0.000040
    105 C                     0.293804      -0.000022
    106 C                    -0.285878       0.000062
    107 H                     0.252401      -0.000003
    108 C                    -0.229871      -0.000046
    109 H                     0.231787       0.000002
    110 C                    -0.254321       0.000069
    111 H                     0.228888      -0.000004
    112 C                    -0.229062      -0.000048
    113 H                     0.232616       0.000003
    114 C                    -0.287359       0.000063
    115 H                     0.253717      -0.000005
    116 C                     0.306594      -0.000029
    117 C                    -0.299263       0.000066
    118 H                     0.253047      -0.000004
    119 C                    -0.227790      -0.000049
    120 H                     0.231029       0.000002
    121 C                    -0.257593       0.000074
    122 H                     0.227598      -0.000004
    123 C                    -0.227263      -0.000050
    124 H                     0.231904       0.000003
    125 C                    -0.291830       0.000066
    126 H                     0.254105      -0.000005
    127 C                    -0.543422       0.003340
    128 H                     0.258620      -0.002318
    129 H                     0.225661       0.000344
    130 C                    -0.541710       0.003192
    131 H                     0.256870      -0.001984
    132 H                     0.225147       0.000327
    133 C                    -0.652153      -0.000232
    134 H                     0.245269      -0.000216
    135 H                     0.213038       0.000010
    136 H                     0.214237      -0.000059
    137 C                    -0.653114      -0.000227
    138 H                     0.243041      -0.000189
    139 H                     0.214974       0.000009
    140 H                     0.214987      -0.000054
  --------------------------------------------------------
  Sum of atomic charges =    -0.000000

                    Cartesian Multipole Moments
 -----------------------------------------------------------------
    Charge (ESU x 10^10)
                -0.0000
    Dipole Moment (Debye)
         X      22.8349      Y      -1.5872      Z      12.8533
       Tot      26.2518
    Quadrupole Moments (Debye-Ang)
        XX    -303.4986     XY       6.4903     YY    -457.4946
        XZ      45.0646     YZ      -5.0949     ZZ    -445.2528

 Total job time:  78057.18s(wall), 248160.72s(cpu)
        *  Thank you very much for using Q-Chem.  Have a nice day.  *
