 Q-Chem 5.0, Q-Chem, Inc., Pleasanton, CA (2017)
 Q-Chem 5.0.1 for Intel X86 EM64T Linux

User input:
--------------------------------------------------------------
$rem
threads 8
jobtype opt
method PBEh-3c
basis def2-mSVP
mem_static      1024
mem_total       8000
sym_ignore      true
unrestricted true
scf_algorithm	diis
scf_max_cycles	2500
solvent_method  pcm
geom_opt_tol_energy 25
geom_opt_tol_gradient 75
$end

$pcm
theory  iefpcm
$end

$solvent
dielectric      8.93
$end

$molecule
read utLEincoords.mol
$end
--------------------------------------------------------------

   21   -3084.7423601047      8.40E-09 Convergence criterion met
 Total energy in the final basis set = -3084.74236010
   18   -3084.7488897623      7.93E-09 Convergence criterion met
 Total energy in the final basis set = -3084.74888976
   18   -3084.7497857770      7.00E-09 Convergence criterion met
 Total energy in the final basis set = -3084.74978578
   18   -3084.7495644713      8.19E-09 Convergence criterion met
 Total energy in the final basis set = -3084.74956447
   18   -3084.7497478553      8.27E-09 Convergence criterion met
 Total energy in the final basis set = -3084.74974786
   18   -3084.7501850761      7.62E-09 Convergence criterion met
 Total energy in the final basis set = -3084.75018508
   17   -3084.7502200161      8.80E-09 Convergence criterion met
 Total energy in the final basis set = -3084.75022002
   18   -3084.7501051394      8.13E-09 Convergence criterion met
   18   -3084.7503035001      7.72E-09 Convergence criterion met
 Total energy in the final basis set = -3084.75030350
   19   -3084.7502734943      8.54E-09 Convergence criterion met
 Total energy in the final basis set = -3084.75027349
   19   -3084.7502653019      8.75E-09 Convergence criterion met
 Total energy in the final basis set = -3084.75026530
   19   -3084.7502411361      8.55E-09 Convergence criterion met
 Total energy in the final basis set = -3084.75024114
   19   -3084.7502312443      8.75E-09 Convergence criterion met
 Total energy in the final basis set = -3084.75023124
   19   -3084.7502272548      8.66E-09 Convergence criterion met
 Total energy in the final basis set = -3084.75022725

             Standard Nuclear Orientation (Angstroms)
    I     Atom           X                Y                Z
 ----------------------------------------------------------------
    1      C      -0.0908105597     0.7803135140     0.0326345757
    2      C      -0.1493339464     0.8552760896     1.4441941194
    3      H       0.7717536596     0.8576166139     2.0198210899
    4      C      -1.3570264017     0.9222776436     2.0949326562
    5      C      -2.5670744788     0.9110909844     1.3381061153
    6      C      -2.5321978011     0.8372788883    -0.0332663002
    7      H      -3.4594913418     0.8254032564    -0.5973079072
    8      C      -1.3060730912     0.7743174304    -0.7230484774
    9      C      -3.6885996205     0.9831545805     2.2658754006
   10      C      -5.0564533299     1.0041877518     2.1380858044
   11      H      -5.5403296676     0.9650472263     1.1695194375
   12      C      -5.8425504064     1.0783821126     3.3114922144
   13      H      -6.9205454594     1.0938744413     3.2106217832
   14      C      -5.2895486078     1.1314091705     4.5717046281
   15      H      -5.9310957437     1.1874503647     5.4428023841
   16      C      -3.1297998104     1.0371458579     3.5584011895
   17      C      -3.8811504483     1.1117489839     4.7284203487
   18      C      -1.7203752444     1.0042484594     3.5104319053
   19      C      -1.0328484767     1.0510423580     4.6972963602
   20      H       0.0494396962     1.0308379356     4.7312440477
   21      C      -1.7688079390     1.1281752304     5.9038375260
   22      H      -1.2227053348     1.1652019725     6.8378643560
   23      C      -3.1451801349     1.1581522121     5.9369289151
   24      H      -3.6637252419     1.2175028738     6.8861304074
   25      B      -1.2829277511     0.6788410652    -2.2611241186
   26      B       1.2473684711     0.6819473826    -0.6998306438
   27      C       1.2922334787     0.6303819709    -2.2285981961
   28      C       2.5280001677     0.5613253881    -2.9117933396
   29      H       3.4554480259     0.5399132357    -2.3481186362
   30      C       2.5711079814     0.5203275624    -4.2815271126
   31      C       3.6854744491     0.4544724646    -5.2284253226
   32      C       5.0547965780     0.4112314181    -5.1333734755
   33      H       5.5618930588     0.4213430181    -4.1763087540
   34      C       5.8146847093     0.3523971572    -6.3258481640
   35      H       6.8940487202     0.3187777994    -6.2478463945
   36      C       5.2376788544     0.3362586781    -7.5764642264
   37      H       5.8624934398     0.2908331906    -8.4603163857
   38      C       3.1062409180     0.4372357652    -6.5147293364
   39      C       3.8277625951     0.3793295202    -7.7055363800
   40      C       1.6977700563     0.4866708593    -6.4490412241
   41      C       0.9840695799     0.4773653745    -7.6236471957
   42      H      -0.0986174504     0.5136754831    -7.6347863624
   43      C       1.6931081844     0.4187164414    -8.8462477859
   44      H       1.1287021239     0.4117797429    -9.7704239777
   45      C       3.0681579146     0.3708243163    -8.9030506149
   46      H       3.5683775828     0.3268475345    -9.8630147133
   47      C       1.3554460365     0.5391835775    -5.0322621910
   48      C       0.1426764250     0.5912126653    -4.3881510228
   49      H      -0.7762179852     0.5950086242    -4.9669898990
   50      C       0.0752531878     0.6386319723    -2.9807638970
   51      C       2.6073956835     0.5677388255     0.1002289952
   52      C       2.9914180155    -0.6765933082     0.6543869206
   53      C       4.1990666831    -0.8018875159     1.3049374249
   54      H       4.5056348638    -1.7669954989     1.6899372087
   55      C       5.0714485028     0.2946934383     1.3961227483
   56      C       4.6984350337     1.5346273730     0.8499586210
   57      H       5.3549796370     2.3893725647     0.9589917289
   58      C       3.4775574303     1.6770384690     0.2278954551
   59      N       6.2977195266     0.1465794895     2.0053127487
   60      C       6.4384099579    -0.7086304891     3.1103885362
   61      C       7.5494095785    -1.5483314493     3.2062721154
   62      H       8.3014501032    -1.5538584780     2.4281124296
   63      C       7.6581145155    -2.4045715114     4.2861870517
   64      H       8.5085880323    -3.0690614408     4.3547639674
   65      C       6.6738655824    -2.4255624748     5.2681431243
   66      H       6.7646620820    -3.0994744089     6.1093836645
   67      C       5.5748045150    -1.5808062198     5.1716244189
   68      H       4.8151207362    -1.5854530231     5.9412659665
   69      C       5.4507022319    -0.7190873974     4.0977272156
   70      H       4.6071874328    -0.0436758792     4.0341367350
   71      C       7.4168882190     0.8281840830     1.5002530797
   72      C       8.3322443728     1.4104970729     2.3769745438
   73      H       8.1735329399     1.3595423153     3.4461349266
   74      C       9.4242355240     2.0835110591     1.8614722835
   75      H      10.1289473686     2.5508494821     2.5355725379
   76      C       9.6096212679     2.1732135710     0.4861712600
   77      H      10.4669703254     2.7012517682     0.0910065906
   78      C       8.6983417578     1.5832739655    -0.3814744077
   79      H       8.8493574179     1.6384046537    -1.4509284057
   80      C       7.6008348526     0.9072626658     0.1178106595
   81      H       6.9050629460     0.4204768391    -0.5536259605
   82      C       2.1344432633    -1.9043392258     0.4865076873
   83      H       2.3129543030    -2.5829373787     1.3238651736
   84      H       1.0793052457    -1.6308497288     0.5286551255
   85      C       3.0654741085     3.0347445588    -0.2733351238
   86      H       2.5362480390     2.9350286545    -1.2230623251
   87      H       3.9563984984     3.6330933085    -0.4762540768
   88      C       2.4144277016    -2.6372581749    -0.8247896692
   89      H       2.2009215272    -2.0053088883    -1.6864063143
   90      H       3.4572604772    -2.9513456933    -0.8867701408
   91      H       1.7905884912    -3.5278990565    -0.9040973674
   92      C       2.1744484912     3.7712222625     0.7246950377
   93      H       1.2547308282     3.2186701839     0.9155872154
   94      H       2.6857114128     3.9159132524     1.6773314221
   95      H       1.8969805000     4.7523261704     0.3389432851
   96      C      -2.6415766226     0.5798471769    -3.0757259800
   97      C      -3.2829202658    -0.6596906468    -3.2333884113
   98      C      -4.5048005147    -0.7507036720    -3.8892856550
   99      H      -4.9959148661    -1.7145896772    -3.9714209090
  100      C      -5.1072412976     0.3757325932    -4.4320610465
  101      C      -4.4644868946     1.6006844138    -4.3159306456
  102      H      -4.9207045109     2.4859456199    -4.7468275265
  103      C      -3.2558051138     1.7105679015    -3.6361482277
  104      N      -6.3639878497     0.2880987897    -5.0720830212
  105      C      -7.3827615858     1.1781660714    -4.6936835772
  106      C      -8.2370340546     1.7234015246    -5.6528645960
  107      H      -8.1097826272     1.4645944599    -6.6965924874
  108      C      -9.2470017140     2.5940794098    -5.2761206678
  109      H      -9.9008816095     3.0070527106    -6.0338278993
  110      C      -9.4116561733     2.9519993881    -3.9443110767
  111      H     -10.1967753465     3.6379539995    -3.6547654849
  112      C      -8.5552938531     2.4197839392    -2.9898719302
  113      H      -8.6733628987     2.6841889722    -1.9467545771
  114      C      -7.5543811321     1.5333187812    -3.3558380981
  115      H      -6.9029854850     1.1129679996    -2.6002506283
  116      C      -6.6358626988    -0.7693879902    -5.9506698828
  117      C      -7.8757907503    -1.4120097612    -5.9399467306
  118      H      -8.6418955511    -1.1000477625    -5.2417241157
  119      C      -8.1346552732    -2.4537865411    -6.8170501782
  120      H      -9.1031145238    -2.9372764988    -6.7913531198
  121      C      -7.1619194740    -2.8907572896    -7.7056361513
  122      H      -7.3645913351    -3.7095335082    -8.3833714311
  123      C      -5.9232074423    -2.2627371700    -7.7095666925
  124      H      -5.1531877485    -2.5868306744    -8.3982430603
  125      C      -5.6613739782    -1.2076748547    -6.8504207065
  126      H      -4.6946127251    -0.7213273524    -6.8753902623
  127      C      -2.6604062134    -1.9380434291    -2.7328902329
  128      H      -2.0145793505    -1.7357864798    -1.8760428043
  129      H      -3.4428500708    -2.6131116686    -2.3753525202
  130      C      -2.6584138458     3.0842836506    -3.4797285722
  131      H      -1.5784392426     3.0136246649    -3.3332980711
  132      H      -2.8064219395     3.6553420953    -4.4005455979
  133      C      -1.8526947945    -2.6405081637    -3.8227413146
  134      H      -1.0557934068    -1.9956299672    -4.1941759904
  135      H      -1.3939722114    -3.5549408708    -3.4436578066
  136      H      -2.4858406314    -2.9105731432    -4.6697002930
  137      C      -3.2821461898     3.8453966071    -2.3118800425
  138      H      -3.1148517143     3.3212355441    -1.3703569905
  139      H      -2.8543767488     4.8445914906    -2.2189429524
  140      H      -4.3598188586     3.9528721684    -2.4457995926
 ----------------------------------------------------------------

   19   -3084.7502192304      8.74E-09 Convergence criterion met
 Total energy in the final basis set = -3084.75021923
 Final energy is   -3084.75021923038
 **  OPTIMIZATION CONVERGED  **

                    Orbital Energies (a.u.)
 --------------------------------------------------------------

 Alpha MOs
 -- Occupied --
-14.768 -14.667 -10.530 -10.528 -10.528 -10.490 -10.489 -10.482
-10.482 -10.482 -10.482 -10.477 -10.475 -10.475 -10.474 -10.473
-10.472 -10.472 -10.472 -10.472 -10.471 -10.471 -10.457 -10.457
-10.457 -10.454 -10.454 -10.453 -10.453 -10.452 -10.451 -10.451
-10.451 -10.451 -10.451 -10.450 -10.450 -10.450 -10.450 -10.449
-10.449 -10.447 -10.446 -10.446 -10.446 -10.445 -10.444 -10.444
-10.443 -10.442 -10.442 -10.442 -10.442 -10.441 -10.440 -10.440
-10.440 -10.440 -10.439 -10.439 -10.439 -10.439 -10.438 -10.436
-10.435 -10.429 -10.428 -10.425 -10.424 -10.422 -10.421 -10.414
-10.414 -10.414 -10.414 -10.411 -10.411 -10.410  -6.906  -6.904
 -1.156  -1.076  -1.004  -1.004  -0.995  -0.994  -0.973  -0.959
 -0.955  -0.946  -0.944  -0.936  -0.923  -0.923  -0.906  -0.899
 -0.890  -0.887  -0.884  -0.881  -0.870  -0.869  -0.861  -0.849
 -0.844  -0.842  -0.841  -0.838  -0.837  -0.837  -0.835  -0.822
 -0.820  -0.816  -0.807  -0.800  -0.799  -0.792  -0.788  -0.785
 -0.748  -0.747  -0.723  -0.721  -0.719  -0.716  -0.714  -0.713
 -0.711  -0.707  -0.704  -0.701  -0.695  -0.692  -0.678  -0.677
 -0.672  -0.667  -0.667  -0.659  -0.653  -0.650  -0.635  -0.635
 -0.631  -0.631  -0.623  -0.617  -0.602  -0.594  -0.586  -0.585
 -0.583  -0.581  -0.581  -0.578  -0.577  -0.571  -0.562  -0.562
 -0.557  -0.554  -0.552  -0.548  -0.541  -0.539  -0.530  -0.530
 -0.525  -0.523  -0.519  -0.517  -0.515  -0.514  -0.511  -0.510
 -0.508  -0.505  -0.504  -0.496  -0.495  -0.494  -0.491  -0.489
 -0.489  -0.488  -0.485  -0.481  -0.480  -0.478  -0.478  -0.478
 -0.476  -0.476  -0.475  -0.473  -0.472  -0.469  -0.466  -0.465
 -0.461  -0.461  -0.455  -0.453  -0.447  -0.444  -0.444  -0.444
 -0.440  -0.438  -0.437  -0.433  -0.430  -0.430  -0.428  -0.426
 -0.424  -0.424  -0.420  -0.419  -0.419  -0.417  -0.416  -0.411
 -0.409  -0.404  -0.401  -0.397  -0.397  -0.394  -0.393  -0.392
 -0.390  -0.388  -0.388  -0.387  -0.384  -0.383  -0.380  -0.379
 -0.379  -0.375  -0.362  -0.361  -0.358  -0.351  -0.350  -0.337
 -0.336  -0.335  -0.331  -0.324  -0.323  -0.313  -0.311  -0.306
 -0.304  -0.303  -0.299  -0.293  -0.291  -0.289  -0.279  -0.275
 -0.268  -0.267  -0.256  -0.247  -0.244  -0.218  -0.153

 Beta MOs
 -- Occupied --
-14.757 -14.667 -10.530 -10.529 -10.529 -10.490 -10.489 -10.480
-10.480 -10.480 -10.480 -10.477 -10.473 -10.473 -10.473 -10.473
-10.473 -10.473 -10.472 -10.472 -10.471 -10.471 -10.458 -10.457
-10.454 -10.454 -10.453 -10.452 -10.452 -10.452 -10.452 -10.452
-10.451 -10.450 -10.450 -10.450 -10.450 -10.450 -10.449 -10.449
-10.449 -10.447 -10.446 -10.446 -10.446 -10.444 -10.444 -10.444
-10.443 -10.442 -10.442 -10.441 -10.441 -10.440 -10.440 -10.440
-10.440 -10.440 -10.439 -10.439 -10.439 -10.438 -10.438 -10.436
-10.436 -10.429 -10.428 -10.424 -10.424 -10.422 -10.421 -10.414
-10.414 -10.413 -10.413 -10.412 -10.410 -10.409  -6.903  -6.901
 -1.139  -1.076  -1.004  -1.003  -0.993  -0.990  -0.968  -0.959
 -0.955  -0.945  -0.943  -0.935  -0.922  -0.922  -0.906  -0.895
 -0.889  -0.885  -0.884  -0.880  -0.868  -0.868  -0.860  -0.849
 -0.841  -0.840  -0.839  -0.838  -0.836  -0.836  -0.835  -0.819
 -0.816  -0.813  -0.804  -0.799  -0.798  -0.792  -0.786  -0.785
 -0.745  -0.743  -0.720  -0.719  -0.717  -0.714  -0.713  -0.710
 -0.710  -0.706  -0.703  -0.700  -0.695  -0.692  -0.678  -0.677
 -0.671  -0.666  -0.665  -0.656  -0.651  -0.649  -0.635  -0.633
 -0.631  -0.631  -0.622  -0.614  -0.602  -0.591  -0.584  -0.582
 -0.580  -0.579  -0.579  -0.575  -0.570  -0.568  -0.561  -0.561
 -0.557  -0.551  -0.550  -0.547  -0.540  -0.539  -0.529  -0.529
 -0.524  -0.521  -0.519  -0.515  -0.514  -0.514  -0.510  -0.509
 -0.508  -0.504  -0.503  -0.496  -0.495  -0.493  -0.491  -0.488
 -0.488  -0.484  -0.481  -0.480  -0.479  -0.478  -0.477  -0.476
 -0.476  -0.474  -0.474  -0.472  -0.468  -0.466  -0.465  -0.462
 -0.460  -0.456  -0.453  -0.452  -0.445  -0.444  -0.443  -0.440
 -0.437  -0.437  -0.433  -0.431  -0.430  -0.429  -0.426  -0.425
 -0.424  -0.420  -0.419  -0.418  -0.417  -0.414  -0.413  -0.409
 -0.409  -0.403  -0.400  -0.396  -0.393  -0.393  -0.392  -0.392
 -0.387  -0.386  -0.386  -0.383  -0.382  -0.381  -0.378  -0.378
 -0.375  -0.369  -0.361  -0.358  -0.353  -0.348  -0.347  -0.336
 -0.329  -0.327  -0.324  -0.322  -0.319  -0.305  -0.303  -0.302
 -0.299  -0.298  -0.294  -0.293  -0.287  -0.287  -0.278  -0.267
 -0.264  -0.249  -0.244  -0.236  -0.218

          Ground-State Mulliken Net Atomic Charges

     Atom                 Charge (a.u.)    Spin (a.u.)
  --------------------------------------------------------
      1 C                    -0.133421       0.020967
      2 C                    -0.415561      -0.014219
      3 H                     0.219148      -0.000739
      4 C                     0.075602       0.039896
      5 C                     0.057694       0.089736
      6 C                    -0.408656      -0.055666
      7 H                     0.228737       0.002154
      8 C                    -0.144430       0.057562
      9 C                     0.173968      -0.056707
     10 C                    -0.406138       0.084886
     11 H                     0.241552      -0.004952
     12 C                    -0.232651      -0.052678
     13 H                     0.248392       0.002527
     14 C                    -0.361597       0.077714
     15 H                     0.244236      -0.004553
     16 C                    -0.079021       0.023278
     17 C                     0.221196      -0.037633
     18 C                     0.174817      -0.043730
     19 C                    -0.412473       0.068631
     20 H                     0.236275      -0.004019
     21 C                    -0.231385      -0.045452
     22 H                     0.246549       0.002223
     23 C                    -0.363680       0.063699
     24 H                     0.244885      -0.003689
     25 B                     0.518299       0.287574
     26 B                     0.507370       0.331732
     27 C                    -0.133835       0.025353
     28 C                    -0.406623      -0.017799
     29 H                     0.217069      -0.000775
     30 C                     0.067345       0.043507
     31 C                     0.180348      -0.045570
     32 C                    -0.411894       0.071440
     33 H                     0.234490      -0.004193
     34 C                    -0.231061      -0.047091
     35 H                     0.246078       0.002302
     36 C                    -0.363137       0.066349
     37 H                     0.244747      -0.003845
     38 C                    -0.081539       0.023994
     39 C                     0.218923      -0.038698
     40 C                     0.173418      -0.057277
     41 C                    -0.406289       0.085935
     42 H                     0.242269      -0.005011
     43 C                    -0.232101      -0.053473
     44 H                     0.248859       0.002568
     45 C                    -0.361619       0.078722
     46 H                     0.244155      -0.004610
     47 C                     0.062243       0.088982
     48 C                    -0.411338      -0.054858
     49 H                     0.227960       0.002102
     50 C                    -0.141437       0.057730
     51 C                    -0.147875       0.276074
     52 C                     0.055296      -0.115454
     53 C                    -0.342588       0.153781
     54 H                     0.285839      -0.007735
     55 C                     0.305727      -0.009229
     56 C                    -0.344116       0.150145
     57 H                     0.285444      -0.007473
     58 C                     0.068581      -0.111936
     59 N                    -0.566838       0.393953
     60 C                     0.264900      -0.079877
     61 C                    -0.262643       0.116694
     62 H                     0.292196      -0.006002
     63 C                    -0.237841      -0.080472
     64 H                     0.273691       0.004052
     65 C                    -0.229828       0.141443
     66 H                     0.273066      -0.007708
     67 C                    -0.237153      -0.085056
     68 H                     0.274226       0.004434
     69 C                    -0.261823       0.121625
     70 H                     0.296189      -0.006118
     71 C                     0.263743      -0.079213
     72 C                    -0.262888       0.115112
     73 H                     0.291987      -0.005908
     74 C                    -0.238283      -0.079628
     75 H                     0.273548       0.003979
     76 C                    -0.229465       0.140101
     77 H                     0.273013      -0.007636
     78 C                    -0.237641      -0.084317
     79 H                     0.273871       0.004457
     80 C                    -0.259689       0.121131
     81 H                     0.295883      -0.006121
     82 C                    -0.548619       0.010324
     83 H                     0.244152      -0.000270
     84 H                     0.273332      -0.003018
     85 C                    -0.542732       0.010315
     86 H                     0.270197      -0.002883
     87 H                     0.243671      -0.000305
     88 C                    -0.663288      -0.002738
     89 H                     0.253424      -0.000568
     90 H                     0.217259      -0.000002
     91 H                     0.233117      -0.000747
     92 C                    -0.664474      -0.002599
     93 H                     0.251421      -0.000495
     94 H                     0.218078       0.000006
     95 H                     0.234506      -0.000669
     96 C                    -0.190873      -0.027301
     97 C                     0.040842       0.004051
     98 C                    -0.361927      -0.001399
     99 H                     0.239138       0.000373
    100 C                     0.288706       0.001351
    101 C                    -0.356384      -0.001418
    102 H                     0.237822       0.000389
    103 C                     0.049993       0.003983
    104 N                    -0.671948       0.000006
    105 C                     0.290387       0.000001
    106 C                    -0.292673       0.000030
    107 H                     0.259768      -0.000001
    108 C                    -0.242521      -0.000020
    109 H                     0.247378       0.000000
    110 C                    -0.266387       0.000033
    111 H                     0.244435      -0.000001
    112 C                    -0.242079      -0.000021
    113 H                     0.247630       0.000001
    114 C                    -0.295767       0.000031
    115 H                     0.259541      -0.000002
    116 C                     0.304730      -0.000005
    117 C                    -0.307185       0.000033
    118 H                     0.259711      -0.000001
    119 C                    -0.240470      -0.000021
    120 H                     0.246531       0.000000
    121 C                    -0.270505       0.000037
    122 H                     0.243039      -0.000002
    123 C                    -0.240125      -0.000022
    124 H                     0.246871       0.000001
    125 C                    -0.300559       0.000031
    126 H                     0.259907      -0.000002
    127 C                    -0.543475       0.003715
    128 H                     0.256343      -0.002595
    129 H                     0.232497       0.000368
    130 C                    -0.540525       0.003309
    131 H                     0.252401      -0.002034
    132 H                     0.231950       0.000369
    133 C                    -0.658023      -0.000319
    134 H                     0.238948      -0.000186
    135 H                     0.221236       0.000017
    136 H                     0.217457      -0.000050
    137 C                    -0.658791      -0.000285
    138 H                     0.237343      -0.000178
    139 H                     0.222267       0.000012
    140 H                     0.218036      -0.000053
  --------------------------------------------------------
  Sum of atomic charges =    -0.000000

                    Cartesian Multipole Moments
 -----------------------------------------------------------------
    Charge (ESU x 10^10)
                -0.0000
    Dipole Moment (Debye)
         X      26.0025      Y      -2.1051      Z      14.5526
       Tot      29.8721
    Quadrupole Moments (Debye-Ang)
        XX    -270.5842     XY       5.4773     YY    -455.9445
        XZ      51.0945     YZ      -4.8091     ZZ    -434.3794

 Total job time:  105465.09s(wall), 305152.81s(cpu)
        *  Thank you very much for using Q-Chem.  Have a nice day.  *
