 Q-Chem 5.1, Q-Chem, Inc., Pleasanton, CA (2018)
 Q-Chem 5.1.1 for Intel X86 EM64T Linux

User input:
--------------------------------------------------------------
$rem
threads 8
jobtype	opt
method PBEh-3c
basis def2-mSVP
mem_static	512
mem_total	6096
sym_ignore	true
solvent_method  pcm
$end

$pcm
theory iefpcm
$end
$solvent
dielectric 7
$end

$molecule
read incoords.mol
$end

--------------------------------------------------------------

   15   -2049.9477949031      4.25e-09  Convergence criterion met
 Total energy in the final basis set =    -2049.9477949031
   13   -2049.9782628441      5.25e-09  Convergence criterion met
 Total energy in the final basis set =    -2049.9782628441
   13   -2049.9885193253      5.26e-09  Convergence criterion met
 Total energy in the final basis set =    -2049.9885193253
   13   -2049.9908654934      5.41e-09  Convergence criterion met
 Total energy in the final basis set =    -2049.9908654934
   13   -2049.9925853102      5.36e-09  Convergence criterion met
 Total energy in the final basis set =    -2049.9925853102
   13   -2049.9931216085      5.41e-09  Convergence criterion met
 Total energy in the final basis set =    -2049.9931216085
   13   -2049.9934984276      5.42e-09  Convergence criterion met
 Total energy in the final basis set =    -2049.9934984276
   13   -2049.9937697372      5.45e-09  Convergence criterion met
   13   -2049.9961756956      5.01e-09  Convergence criterion met
 Total energy in the final basis set =    -2049.9961756956
   13   -2049.9961822452      5.01e-09  Convergence criterion met
 Total energy in the final basis set =    -2049.9961822452
   13   -2049.9962059677      5.03e-09  Convergence criterion met
 Total energy in the final basis set =    -2049.9962059677
   13   -2049.9962376965      5.03e-09  Convergence criterion met
 Total energy in the final basis set =    -2049.9962376965
   13   -2049.9962505856      5.01e-09  Convergence criterion met
 Total energy in the final basis set =    -2049.9962505856
   13   -2049.9962542013      5.04e-09  Convergence criterion met
 Total energy in the final basis set =    -2049.9962542013

             Standard Nuclear Orientation (Angstroms)
    I     Atom           X                Y                Z
 ----------------------------------------------------------------
    1      C      -8.9641355806     4.2327344648     0.6151492474
    2      C      -9.0934287566     3.0719345286     1.4071250676
    3      B      -8.0717524724     1.9154074377     1.2770910139
    4      C      -6.8414997539     2.0583233016     0.3444217498
    5      C      -6.6346053757     3.2433916830    -0.3961770722
    6      B      -7.7613435351     4.3864810470    -0.4417447977
    7      C      -5.5155463665     3.3465921535    -1.2283650656
    8      C      -4.6546638399     2.2731882954    -1.3727646248
    9      C      -4.8886685633     1.0705997055    -0.6648690021
   10      C      -5.9541606740     0.9784778878     0.2026483330
   11      C      -9.9740062399     5.2012625483     0.6491561137
   12      C     -11.0938289616     5.0142256282     1.4396448729
   13      C     -11.1978043310     3.8724634227     2.2676553127
   14      C     -10.2065288122     2.9174464484     2.2497140691
   15      H      -9.8915507948     6.0951084191     0.0372217915
   16      C      -8.3205379041     0.5666267051     2.0476244154
   17      C      -7.2057940605     5.8893681828    -0.6116034358
   18      C      -9.0878960642    -0.4499669682     1.4696383333
   19      C      -9.2993748313    -1.6386489689     2.1636328948
   20      C      -8.7661189103    -1.8471860453     3.4285834789
   21      C      -8.0064907489    -0.8280386797     3.9956408745
   22      C      -7.7792264327     0.3669293141     3.3238133559
   23      C      -6.9555590742     1.4525643598     3.9580002205
   24      C      -9.6825196175    -0.2649095937     0.1004207192
   25      H      -9.8927936715    -2.4217338143     1.7023619421
   26      C      -8.9999314006    -3.1334514177     4.1680783301
   27      H      -7.5795044742    -0.9702132829     4.9835279770
   28      H      -6.0748605717     1.6889553193     3.3561301276
   29      H      -6.6082161372     1.1700614633     4.9514861158
   30      H      -7.5280441299     2.3777161372     4.0591694499
   31      H     -10.3675591830     0.5858734344     0.0741545325
   32      H     -10.2414059312    -1.1444644099    -0.2185952800
   33      H      -8.9095154255    -0.0789786736    -0.6494387051
   34      H      -9.5643929320    -3.8444410040     3.5653226705
   35      H      -9.5585440215    -2.9673844692     5.0910866461
   36      H      -8.0586268386    -3.6099142119     4.4469857855
   37      C      -6.6859299059     6.4678223573     0.5700698756
   38      C      -6.1773725035     7.7606086921     0.5706257459
   39      C      -6.1537748977     8.5390414084    -0.5789119173
   40      C      -6.6309986956     7.9629428490    -1.7428621321
   41      C      -7.1417146582     6.6626881555    -1.7847489392
   42      C      -7.5717012763     6.1784473817    -3.1503593249
   43      C      -6.6397946813     5.7143549245     1.8746367844
   44      H      -5.7800137621     8.1680632366     1.4951032545
   45      C      -5.6265802288     9.9440128318    -0.5527982810
   46      H      -6.5961314267     8.5365882105    -2.6636787587
   47      H      -7.1272738203     5.2209046982    -3.4161904181
   48      H      -7.2666693097     6.8965990375    -3.9114200189
   49      H      -8.6548052515     6.0776621141    -3.2436303638
   50      H      -7.6238390468     5.6459565330     2.3403389503
   51      H      -5.9779154061     6.2133274155     2.5825672174
   52      H      -6.2769330343     4.6932107883     1.7528912413
   53      H      -4.6769076694    10.0047267611    -0.0197919923
   54      H      -6.3207741591    10.6172344953    -0.0452917201
   55      H      -5.4715036488    10.3321879170    -1.5591529799
   56      C      -3.5097730444     2.0565397178    -2.2626928485
   57      C     -12.5015949597     3.9017821608     2.9348257252
   58      C     -13.1744661435     3.0735412456     3.7944774425
   59      C      -1.8105254538     2.1968624554    -3.9458451141
   60      C      -1.4412206084     0.8836107678    -3.7643337273
   61      C      -2.1114893062     0.0852022444    -2.8053257100
   62      C     -15.1386229684     4.5302735940     3.6800768155
   63      C     -14.4993595851     3.4132535105     4.1648580080
   64      H     -15.0287628484     2.7581051468     4.8446939071
   65      H      -0.6466309692     0.4574476560    -4.3647438700
   66      C      -3.1136343685     0.7171592857    -2.0761312837
   67      H      -6.1347540229     0.0592267216     0.7496715814
   68      C      -2.8562965670     2.8035281000    -3.2081758484
   69      H      -1.2941950892     2.7890004111    -4.6902828879
   70      H      -3.1248306754     3.8330931515    -3.4101326351
   71      H      -5.3449447445     4.2559550497    -1.7950993385
   72      C      -3.9178846445     0.0718491362    -1.1174868575
   73      C      -1.9085462245    -1.2907922313    -2.5320710084
   74      C      -2.6901678951    -1.9291487113    -1.5973669347
   75      C      -3.7106848702    -1.2612711844    -0.8761150999
   76      H      -2.5304881862    -2.9831560724    -1.4092696406
   77      H      -4.3118602994    -1.8151150905    -0.1651577435
   78      H     -10.3042213321     2.0204905990     2.8520839776
   79      H     -12.7275097942     2.1669538892     4.1838024450
   80      C     -13.1569586898     5.0527326590     2.4580846058
   81      C     -12.3482936622     5.7678122637     1.5524912595
   82      C     -12.8747953996     6.8805711451     0.9486187962
   83      C     -14.2020657897     7.2606620741     1.2653614955
   84      C     -14.9834448742     6.5528196825     2.1497316702
   85      C     -14.4664473440     5.3961278363     2.7821958950
   86      H     -14.6163840056     8.1368241313     0.7835320163
   87      H     -15.9979285052     6.8742222036     2.3527594988
   88      H     -12.3102728106     7.4644285541     0.2321432697
   89      H     -16.1591867488     4.7415332953     3.9756854530
   90      H      -1.1472240545    -1.8435318690    -3.0690421076
   91      O      -8.5528768796     3.8941375828    -1.8616273174
   92      H      -8.7068973171     2.9373068484    -1.8204337748
   93      H      -9.4252395180     4.3025418838    -1.9735137956
 ----------------------------------------------------------------

   13   -2049.9962547175      5.05e-09  Convergence criterion met
 Total energy in the final basis set =    -2049.9962547175
 Final energy is   -2049.99625471749
 **  OPTIMIZATION CONVERGED  **

                    Orbital Energies (a.u.)
 --------------------------------------------------------------

 Alpha MOs
 -- Occupied --
-19.579 -10.463 -10.463 -10.462 -10.462 -10.461 -10.461 -10.461
-10.460 -10.460 -10.460 -10.459 -10.459 -10.459 -10.458 -10.457
-10.457 -10.457 -10.456 -10.456 -10.455 -10.454 -10.454 -10.449
-10.449 -10.449 -10.449 -10.448 -10.446 -10.446 -10.445 -10.445
-10.444 -10.443 -10.442 -10.432 -10.431 -10.431 -10.431 -10.427
-10.426 -10.426 -10.426 -10.425 -10.425 -10.424 -10.424 -10.423
-10.418 -10.418 -10.415  -6.946  -6.940  -1.203  -1.013  -1.013
 -0.959  -0.956  -0.955  -0.949  -0.931  -0.930  -0.905  -0.897
 -0.870  -0.868  -0.863  -0.863  -0.850  -0.849  -0.844  -0.843
 -0.817  -0.810  -0.808  -0.801  -0.780  -0.775  -0.758  -0.757
 -0.754  -0.748  -0.730  -0.723  -0.723  -0.717  -0.686  -0.679
 -0.677  -0.673  -0.658  -0.648  -0.643  -0.639  -0.638  -0.634
 -0.633  -0.609  -0.590  -0.588  -0.585  -0.579  -0.573  -0.570
 -0.562  -0.547  -0.541  -0.540  -0.538  -0.528  -0.524  -0.523
 -0.512  -0.503  -0.500  -0.494  -0.493  -0.490  -0.487  -0.486
 -0.483  -0.483  -0.479  -0.479  -0.477  -0.476  -0.472  -0.471
 -0.465  -0.463  -0.463  -0.462  -0.461  -0.458  -0.455  -0.453
 -0.449  -0.447  -0.444  -0.438  -0.436  -0.436  -0.433  -0.427
 -0.425  -0.423  -0.420  -0.411  -0.406  -0.403  -0.395  -0.394
 -0.394  -0.393  -0.389  -0.387  -0.383  -0.381  -0.379  -0.377
 -0.372  -0.369  -0.360  -0.348  -0.343  -0.332  -0.328  -0.313
 -0.311  -0.294  -0.293  -0.274  -0.274  -0.268  -0.265  -0.261
 -0.255  -0.254  -0.251

          Ground-State Mulliken Net Atomic Charges

     Atom                 Charge (a.u.)
  ----------------------------------------
      1 C                    -0.201586
      2 C                    -0.147444
      3 B                     0.630262
      4 C                    -0.155508
      5 C                    -0.194382
      6 B                     0.818340
      7 C                    -0.406019
      8 C                     0.081853
      9 C                     0.069089
     10 C                    -0.396389
     11 C                    -0.432884
     12 C                     0.089380
     13 C                     0.063720
     14 C                    -0.394241
     15 H                     0.233118
     16 C                    -0.214564
     17 C                    -0.178258
     18 C                     0.045790
     19 C                    -0.370849
     20 C                     0.110649
     21 C                    -0.359079
     22 C                     0.059126
     23 C                    -0.771883
     24 C                    -0.772204
     25 H                     0.221379
     26 C                    -0.721920
     27 H                     0.221211
     28 H                     0.247552
     29 H                     0.247876
     30 H                     0.246262
     31 H                     0.242301
     32 H                     0.250753
     33 H                     0.240367
     34 H                     0.236441
     35 H                     0.238600
     36 H                     0.238012
     37 C                     0.020179
     38 C                    -0.341609
     39 C                     0.108367
     40 C                    -0.346660
     41 C                     0.011691
     42 C                    -0.740542
     43 C                    -0.769316
     44 H                     0.217571
     45 C                    -0.721350
     46 H                     0.216264
     47 H                     0.241744
     48 H                     0.239939
     49 H                     0.216986
     50 H                     0.247617
     51 H                     0.240731
     52 H                     0.256587
     53 H                     0.236162
     54 H                     0.238178
     55 H                     0.233885
     56 C                     0.168099
     57 C                     0.177787
     58 C                    -0.398415
     59 C                    -0.230935
     60 C                    -0.349672
     61 C                     0.218632
     62 C                    -0.350843
     63 C                    -0.231157
     64 H                     0.252833
     65 H                     0.250244
     66 C                    -0.066549
     67 H                     0.241798
     68 C                    -0.396211
     69 H                     0.253265
     70 H                     0.247856
     71 H                     0.231665
     72 C                     0.176531
     73 C                    -0.350416
     74 C                    -0.231554
     75 C                    -0.396943
     76 H                     0.252650
     77 H                     0.246991
     78 H                     0.241635
     79 H                     0.247193
     80 C                    -0.066877
     81 C                     0.168879
     82 C                    -0.397914
     83 C                    -0.230973
     84 C                    -0.349515
     85 C                     0.219452
     86 H                     0.253473
     87 H                     0.250658
     88 H                     0.246237
     89 H                     0.249073
     90 H                     0.249000
     91 O                    -0.728954
     92 H                     0.510002
     93 H                     0.501681
  ----------------------------------------
  Sum of atomic charges =    -0.000000

                    Cartesian Multipole Moments
 -----------------------------------------------------------------
    Charge (ESU x 10^10)
                -0.0000
    Dipole Moment (Debye)
         X      -3.7581      Y      -1.3123      Z      -4.3279
       Tot       5.8802
    Quadrupole Moments (Debye-Ang)
        XX    -216.5536     XY     -12.2244     YY    -287.4847
        XZ      23.9969     YZ     -26.1170     ZZ    -284.3889

 Total job time:  42019.59s(wall), 295809.82s(cpu)
        *  Thank you very much for using Q-Chem.  Have a nice day.  *
