 Q-Chem 5.1, Q-Chem, Inc., Pleasanton, CA (2018)
 Q-Chem 5.1.1 for Intel X86 EM64T Linux

User input:
--------------------------------------------------------------
$rem
threads 8
jobtype	opt
method PBEh-3c
basis def2-mSVP
mem_static	512
mem_total	6096
sym_ignore	true
solvent_method  pcm
$end

$pcm
theory iefpcm
$end
$solvent
dielectric 7
$end

$molecule
0 1
 O     0.000000     0.000000     0.000000
 H     0.000000     0.000000     1.008000
 H     0.950353     0.000000    -0.335996
$end

--------------------------------------------------------------

   10     -76.2613503097      9.43e-10  Convergence criterion met
 Total energy in the final basis set =      -76.2613503097
    9     -76.2666935059      7.48e-09  Convergence criterion met
 Total energy in the final basis set =      -76.2666935059
    9     -76.2667597011      5.91e-09  Convergence criterion met
 Total energy in the final basis set =      -76.2667597011

             Standard Nuclear Orientation (Angstroms)
    I     Atom           X                Y                Z
 ----------------------------------------------------------------
    1      O      -0.0042062857     0.0000000000    -0.0029626378
    2      H       0.0404140398     0.0000000000     0.9552937075
    3      H       0.9141452459     0.0000000000    -0.2803270697
 ----------------------------------------------------------------

   11     -76.2667605506      4.29e-10  Convergence criterion met
 Total energy in the final basis set =      -76.2667605506
 Final energy is   -76.2667605506167
 **  OPTIMIZATION CONVERGED  **

                    Orbital Energies (a.u.)
 --------------------------------------------------------------

 Alpha MOs
 -- Occupied --
-19.471  -1.099  -0.577  -0.437  -0.358

          Ground-State Mulliken Net Atomic Charges

     Atom                 Charge (a.u.)
  ----------------------------------------
      1 O                    -0.868450
      2 H                     0.434221
      3 H                     0.434229
  ----------------------------------------
  Sum of atomic charges =     0.000000

                    Cartesian Multipole Moments
 -----------------------------------------------------------------
    Charge (ESU x 10^10)
                 0.0000
    Dipole Moment (Debye)
         X       1.9357      Y      -0.0000      Z       1.3687
       Tot       2.3707
    Quadrupole Moments (Debye-Ang)
        XX      -4.8547     XY      -0.0000     YY      -7.1560
        XZ      -0.6283     YZ      -0.0000     ZZ      -4.4104

 Total job time:  2.28s(wall), 17.93s(cpu)
        *  Thank you very much for using Q-Chem.  Have a nice day.  *
