 Q-Chem 5.0, Q-Chem, Inc., Pleasanton, CA (2017)
 Q-Chem 5.0.1 for Intel X86 EM64T Linux

User input:
--------------------------------------------------------------
$rem
threads 4
jobtype	opt
method PBEh-3c
basis def2-mSVP
mem_static	1024
mem_total	4000
sym_ignore	true
scf_convergence	9
solvent_method	pcm
$end

$molecule
read gsopt.mol
$end

$solvent
dielectric	2.38
$end

$pcm
theory iefpcm
$end
--------------------------------------------------------------

   17   -2123.8118213975      4.04E-10 Convergence criterion met
 Total energy in the final basis set = -2123.81182140
   15   -2123.8137846942      4.60E-10 Convergence criterion met
 Total energy in the final basis set = -2123.81378469
   15   -2123.8144060904      4.45E-10 Convergence criterion met
 Total energy in the final basis set = -2123.81440609
   15   -2123.8144122946      4.36E-10 Convergence criterion met
 Total energy in the final basis set = -2123.81441229
   14   -2123.8144217763      8.18E-10 Convergence criterion met
 Total energy in the final basis set = -2123.81442178
   14   -2123.8144960216      6.64E-10 Convergence criterion met
 Total energy in the final basis set = -2123.81449602
   14   -2123.8145358726      6.18E-10 Convergence criterion met
 Total energy in the final basis set = -2123.81453587
   14   -2123.8145502727      6.07E-10 Convergence criterion met
 Total energy in the final basis set = -2123.81455027
   14   -2123.8145358561      6.12E-10 Convergence criterion met
 Total energy in the final basis set = -2123.81453586
   14   -2123.8145208204      6.04E-10 Convergence criterion met
 Total energy in the final basis set = -2123.81452082
   14   -2123.8145173713      5.94E-10 Convergence criterion met
 Total energy in the final basis set = -2123.81451737

             Standard Nuclear Orientation (Angstroms)
    I     Atom           X                Y                Z
 ----------------------------------------------------------------
    1      C       0.0188420950     0.4687800288     0.0845279510
    2      C       0.0134394194     0.3411985867     1.4790035012
    3      H       0.9523909064     0.2332498218     2.0111028466
    4      C      -1.1873530407     0.3469868984     2.1712569256
    5      C      -2.4014229112     0.4832744158     1.4629782388
    6      C      -2.4086576470     0.6027628109     0.0864211825
    7      H      -3.3470232024     0.6947838804    -0.4501609852
    8      C      -1.2048421396     0.5970443695    -0.6175720442
    9      C      -3.5046564369     0.4505579314     2.4162300683
   10      C      -4.8690054115     0.5331869986     2.3174404805
   11      H      -5.3680549231     0.6585818586     1.3641994872
   12      C      -2.9207100309     0.2882222940     3.6838645484
   13      C      -3.6485385838     0.1987422698     4.8645839998
   14      C      -1.5164796046     0.2191204675     3.5950271862
   15      C      -0.8058455738     0.0513024488     4.7533952548
   16      H       0.2749578528    -0.0133048754     4.7575558473
   17      C      -5.6352962604     0.4493662417     3.5032491394
   18      H      -6.7131584893     0.5143706143     3.4290227603
   19      C      -5.0573725826     0.2864979348     4.7412908395
   20      H      -5.6832724916     0.2246221167     5.6231284661
   21      C      -1.5163757942    -0.0425046195     5.9753424770
   22      H      -0.9517754125    -0.1758009252     6.8887241564
   23      C      -2.8886443579     0.0270314074     6.0456360678
   24      H      -3.3855366495    -0.0514277689     7.0047707063
   25      B       1.3612392506     0.4524012702    -0.7047380913
   26      B      -1.2207145910     0.7136228230    -2.1677465392
   27      C       0.1259445316     0.7371743323    -2.9421793115
   28      C       0.1201221193     0.8587782995    -4.3315919533
   29      H      -0.8209777801     0.9510640193    -4.8626013357
   30      C       1.3123110746     0.8479554614    -5.0283351390
   31      C       2.5437146122     0.7181799537    -4.3495262144
   32      C       2.5578179081     0.6023026313    -2.9697229745
   33      H       3.4976886291     0.4961257529    -2.4392754796
   34      C       1.3549415777     0.6093679642    -2.2535304636
   35      C       3.6112100880     0.7103926492    -5.3568943007
   36      C       4.9765494830     0.5968804609    -5.3396429179
   37      H       5.5310067964     0.4928735947    -4.4154030653
   38      C       2.9715554627     0.8345412999    -6.6060132726
   39      C       3.6259035390     0.8472768515    -7.8337914288
   40      C       1.5754660248     0.9243229376    -6.4631886657
   41      C       0.7991871808     1.0358896372    -7.5880591299
   42      H      -0.2805472663     1.1054847061    -7.5354005987
   43      C       5.6733545629     0.6111578281    -6.5730609637
   44      H       6.7515276404     0.5204128293    -6.5552235405
   45      C       5.0353213642     0.7306359083    -7.7858829256
   46      H       5.6120653511     0.7320488371    -8.7028146076
   47      C       1.4391206779     1.0556576132    -8.8500173218
   48      H       0.8280461842     1.1428769072    -9.7391442465
   49      C       2.8052880136     0.9642705566    -8.9828851888
   50      H       3.2530078300     0.9790998391    -9.9691908247
   51      C      -2.5775024641     0.7765024430    -2.9599821989
   52      C      -3.1782403541    -0.3986194431    -3.4156526422
   53      C      -4.3655882508    -0.3546575835    -4.1442628592
   54      H      -4.8004427265    -1.2867672939    -4.4823931758
   55      C      -4.9677310956     0.8644147429    -4.4262892951
   56      O      -6.1161215206     1.0051278022    -5.1215516443
   57      C      -4.3734086018     2.0406922103    -3.9760201429
   58      H      -4.8479581092     2.9890101853    -4.2003063751
   59      C      -3.1928541775     2.0028551131    -3.2521139173
   60      C      -6.7576452775    -0.1518190193    -5.5996612827
   61      H      -7.6546574198     0.1814313368    -6.1172107923
   62      H      -6.1349448095    -0.7087643144    -6.3066889149
   63      H      -7.0529134989    -0.8261254544    -4.7899461034
   64      C      -2.5381509147    -1.7292814768    -3.1306321385
   65      H      -3.1376911679    -2.5577672979    -3.5073080045
   66      H      -1.5512204531    -1.8025582281    -3.5934283314
   67      H      -2.4004440837    -1.8853168043    -2.0584673519
   68      C      -2.5606621654     3.2819170015    -2.7809807666
   69      H      -3.1482614164     4.1544085675    -3.0644256358
   70      H      -1.5605695855     3.4078495089    -3.2022041382
   71      H      -2.4535964849     3.2949158554    -1.6941635527
   72      C       2.7202082226     0.2633140950     0.0489787657
   73      C       3.4297625317     1.3656881192     0.5226240598
   74      C       4.6466073137     1.1944398065     1.1808392196
   75      H       5.1720145068     2.0712978244     1.5373666617
   76      C       5.1628627774    -0.0818593505     1.3688697733
   77      O       6.3297581817    -0.3459868320     1.9941386471
   78      C       4.4572724501    -1.1859398706     0.8950715560
   79      H       4.8676242788    -2.1777025862     1.0466263190
   80      C       3.2475468431    -1.0215745816     0.2407803955
   81      C       7.0729875408     0.7312399530     2.5071473160
   82      H       7.9609559039     0.3048254657     2.9688985663
   83      H       6.5195626908     1.2906290605     3.2678752180
   84      H       7.3881335176     1.4275079291     1.7238776320
   85      C       2.4954177382    -2.2181201931    -0.2732416359
   86      H       3.0005788397    -3.1519947140    -0.0289193527
   87      H       2.3824447882    -2.1792567112    -1.3593259195
   88      H       1.4890050547    -2.2682302857     0.1490931026
   89      C       2.8782650023     2.7488034353     0.3117664559
   90      H       3.5185079229     3.5149503814     0.7480087300
   91      H       2.7727633523     2.9754269590    -0.7518436570
   92      H       1.8870303765     2.8558527335     0.7585345090
 ----------------------------------------------------------------

   14   -2123.8145182372      5.97E-10 Convergence criterion met
 Total energy in the final basis set = -2123.81451824
 Final energy is   -2123.81451823717
 **  OPTIMIZATION CONVERGED  **

                    Orbital Energies (a.u.)
 --------------------------------------------------------------

 Alpha MOs
 -- Occupied --
-19.524 -19.524 -10.501 -10.501 -10.485 -10.484 -10.463 -10.463
-10.463 -10.463 -10.463 -10.463 -10.462 -10.462 -10.461 -10.461
-10.461 -10.461 -10.460 -10.460 -10.460 -10.460 -10.459 -10.458
-10.457 -10.457 -10.457 -10.457 -10.453 -10.453 -10.452 -10.452
-10.452 -10.451 -10.451 -10.451 -10.446 -10.445 -10.433 -10.433
-10.433 -10.432 -10.432 -10.431 -10.429 -10.429 -10.426 -10.425
-10.425 -10.424 -10.414 -10.413  -6.947  -6.946  -1.180  -1.180
 -1.015  -1.015  -0.962  -0.958  -0.953  -0.952  -0.932  -0.931
 -0.908  -0.899  -0.871  -0.870  -0.859  -0.853  -0.852  -0.848
 -0.845  -0.845  -0.820  -0.812  -0.811  -0.803  -0.788  -0.788
 -0.766  -0.765  -0.755  -0.754  -0.733  -0.726  -0.725  -0.719
 -0.687  -0.681  -0.678  -0.664  -0.660  -0.649  -0.646  -0.645
 -0.642  -0.642  -0.593  -0.591  -0.590  -0.586  -0.583  -0.582
 -0.582  -0.573  -0.572  -0.558  -0.558  -0.543  -0.542  -0.535
 -0.532  -0.532  -0.526  -0.521  -0.511  -0.506  -0.501  -0.495
 -0.494  -0.488  -0.488  -0.487  -0.484  -0.484  -0.483  -0.480
 -0.477  -0.475  -0.472  -0.471  -0.469  -0.465  -0.464  -0.463
 -0.462  -0.457  -0.456  -0.452  -0.443  -0.440  -0.440  -0.438
 -0.433  -0.425  -0.424  -0.423  -0.420  -0.418  -0.417  -0.410
 -0.400  -0.399  -0.396  -0.394  -0.393  -0.392  -0.390  -0.389
 -0.378  -0.375  -0.373  -0.366  -0.362  -0.357  -0.354  -0.351
 -0.340  -0.338  -0.318  -0.312  -0.294  -0.293  -0.280  -0.276
 -0.276  -0.261  -0.256  -0.255  -0.250  -0.247

          Ground-State Mulliken Net Atomic Charges

     Atom                 Charge (a.u.)
  ----------------------------------------
      1 C                    -0.155726
      2 C                    -0.397669
      3 H                     0.241261
      4 C                     0.105074
      5 C                     0.077625
      6 C                    -0.387694
      7 H                     0.241164
      8 C                    -0.154844
      9 C                     0.185789
     10 C                    -0.383692
     11 H                     0.237654
     12 C                    -0.062866
     13 C                     0.238961
     14 C                     0.187415
     15 C                    -0.393650
     16 H                     0.237499
     17 C                    -0.221049
     18 H                     0.242760
     19 C                    -0.341025
     20 H                     0.237417
     21 C                    -0.218034
     22 H                     0.242179
     23 C                    -0.345731
     24 H                     0.237774
     25 B                     0.699920
     26 B                     0.698483
     27 C                    -0.153716
     28 C                    -0.386994
     29 H                     0.242611
     30 C                     0.078578
     31 C                     0.101669
     32 C                    -0.396429
     33 H                     0.242182
     34 C                    -0.155839
     35 C                     0.188970
     36 C                    -0.392468
     37 H                     0.237732
     38 C                    -0.064666
     39 C                     0.235909
     40 C                     0.187182
     41 C                    -0.384501
     42 H                     0.237702
     43 C                    -0.218381
     44 H                     0.242161
     45 C                    -0.344370
     46 H                     0.237731
     47 C                    -0.220911
     48 H                     0.242677
     49 C                    -0.339984
     50 H                     0.237390
     51 C                    -0.222650
     52 C                     0.055462
     53 C                    -0.447805
     54 H                     0.237865
     55 C                     0.397019
     56 O                    -0.463629
     57 C                    -0.395212
     58 H                     0.230854
     59 C                     0.060058
     60 C                    -0.418233
     61 H                     0.247417
     62 H                     0.212322
     63 H                     0.212573
     64 C                    -0.768483
     65 H                     0.241557
     66 H                     0.248720
     67 H                     0.248914
     68 C                    -0.765742
     69 H                     0.244523
     70 H                     0.246558
     71 H                     0.246422
     72 C                    -0.217889
     73 C                     0.060685
     74 C                    -0.447306
     75 H                     0.237789
     76 C                     0.396818
     77 O                    -0.463210
     78 C                    -0.399514
     79 H                     0.230732
     80 C                     0.055781
     81 C                    -0.418208
     82 H                     0.247249
     83 H                     0.212175
     84 H                     0.211884
     85 C                    -0.769334
     86 H                     0.245369
     87 H                     0.247726
     88 H                     0.247689
     89 C                    -0.767950
     90 H                     0.241032
     91 H                     0.248162
     92 H                     0.248583
  ----------------------------------------
  Sum of atomic charges =     0.000000

                    Cartesian Multipole Moments
 -----------------------------------------------------------------
    Charge (ESU x 10^10)
                -0.0000
    Dipole Moment (Debye)
         X      -0.0200      Y      -0.2379      Z      -0.0445
       Tot       0.2429
    Quadrupole Moments (Debye-Ang)
        XX    -259.4901     XY      16.7683     YY    -312.4939
        XZ      -0.9351     YZ       8.0327     ZZ    -254.3701

 Total job time:  33063.83s(wall), 72664.65s(cpu)
        *  Thank you very much for using Q-Chem.  Have a nice day.  *
