 Q-Chem 5.0, Q-Chem, Inc., Pleasanton, CA (2017)
 Q-Chem 5.0.1 for Intel X86 EM64T Linux

User input:
--------------------------------------------------------------
$rem
threads 8
jobtype	opt
method PBEh-3c
basis def2-mSVP
mem_static	512
mem_total	6096
sym_ignore	true
scf_convergence 9
$end

$molecule
read gsopt_vac.mol
$end

--------------------------------------------------------------

   17   -2123.8008611195      6.09E-10 Convergence criterion met
 Total energy in the final basis set = -2123.80086112
   14   -2123.8010868310      7.73E-10 Convergence criterion met
 Total energy in the final basis set = -2123.80108683
   13   -2123.8009839172      6.46E-10 Convergence criterion met
 Total energy in the final basis set = -2123.80098392
   12   -2123.8009694623      6.84E-10 Convergence criterion met
 Total energy in the final basis set = -2123.80096946
   11   -2123.8009837270      9.55E-10 Convergence criterion met
 Total energy in the final basis set = -2123.80098373
   12   -2123.8010070517      4.68E-10 Convergence criterion met
 Total energy in the final basis set = -2123.80100705

             Standard Nuclear Orientation (Angstroms)
    I     Atom           X                Y                Z
 ----------------------------------------------------------------
    1      C       0.0286245468    -0.0806570069     0.0834410581
    2      C       0.0153717286    -0.0698570414     1.4833293153
    3      H       0.9545042861    -0.0703602488     2.0262962938
    4      C      -1.1908602660    -0.0590183490     2.1653513511
    5      C      -2.4024285234    -0.0683124012     1.4403171062
    6      C      -2.4012696954    -0.0847596317     0.0591263564
    7      H      -3.3364903804    -0.0955166729    -0.4906473773
    8      C      -1.1920855579    -0.0867937508    -0.6350276017
    9      C      -1.5271801147    -0.0396472701     3.5932822203
   10      C      -0.8215002805    -0.0202040540     4.7662367889
   11      H       0.2610884178    -0.0178808121     4.7831132786
   12      C      -2.9342504460    -0.0394703179     3.6662987731
   13      C      -3.6682782818    -0.0215858188     4.8458099116
   14      C      -3.5133561229    -0.0571204655     2.3855371022
   15      C      -4.8786392127    -0.0584386665     2.2720750440
   16      H      -5.3731312739    -0.0721932704     1.3083854504
   17      C      -5.0778550418    -0.0235731703     4.7065547003
   18      H      -5.7090225535    -0.0108548637     5.5866414071
   19      C      -5.6510331945    -0.0418308885     3.4563802461
   20      H      -6.7300290986    -0.0433651839     3.3719041376
   21      C      -1.5391356319    -0.0018580277     5.9869269850
   22      H      -0.9785247250     0.0137785957     6.9122240083
   23      C      -2.9130552322    -0.0023902862     6.0417646001
   24      H      -3.4151006778     0.0123719138     7.0012305220
   25      B       1.3773500267    -0.0927466905    -0.6936447592
   26      C       1.3794629364    -0.0636188161    -2.2496118922
   27      C       2.5892310697    -0.0410482713    -2.9534648783
   28      H       3.5259450787    -0.0393750414    -2.4067749846
   29      C       2.5843262519    -0.0223344444    -4.3380137563
   30      C       1.3554076645    -0.0330222855    -5.0334876469
   31      C       0.1561719928    -0.0575284370    -4.3500272027
   32      H      -0.7830732836    -0.0673416887    -4.8928299903
   33      C       0.1526916483    -0.0702691050    -2.9557238550
   34      C       3.6611953667     0.0035611001    -5.3354849198
   35      C       5.0301831965     0.0247988914    -5.3028936254
   36      H       5.5806162394     0.0258089507    -4.3705568324
   37      C       3.0293473288     0.0054852096    -6.5948111372
   38      C       3.6943220023     0.0260220191    -7.8160899731
   39      C       1.6295795964    -0.0165186446    -6.4678351505
   40      C       0.8608523635    -0.0192361437    -7.6026815641
   41      H      -0.2214099833    -0.0370193298    -7.5614715893
   42      C       5.7378998547     0.0463874771    -6.5295952770
   43      H       6.8193771262     0.0631771482    -6.4989555173
   44      C       5.1070621111     0.0470933501    -7.7511704836
   45      H       5.6926097164     0.0640421793    -8.6622379447
   46      C       2.8807790583     0.0233063591    -8.9755179856
   47      H       3.3370984390     0.0382795668    -9.9577896567
   48      C       1.5109908269     0.0009584530    -8.8586938420
   49      H       0.9055503680    -0.0015714609    -9.7558686176
   50      B      -1.1986582863    -0.0972076484    -2.1897584175
   51      C      -2.5520466975    -0.1424254936    -2.9885343472
   52      C      -3.1957188368     1.0333132100    -3.3755594617
   53      C      -4.3845494881     0.9880226290    -4.1017624664
   54      H      -4.8545841296     1.9210625656    -4.3854386246
   55      C      -4.9431479490    -0.2342612905    -4.4498446755
   56      O      -6.0894530825    -0.3817949357    -5.1473184204
   57      C      -4.3045155282    -1.4111451935    -4.0696895749
   58      H      -4.7473650456    -2.3602906243    -4.3476507939
   59      C      -3.1242118659    -1.3724523102    -3.3483401922
   60      C      -6.7905924974     0.7682280328    -5.5366339703
   61      H      -7.6804122963     0.4272757990    -6.0620462230
   62      H      -7.1039822631     1.3744462182    -4.6803024021
   63      H      -6.2094417599     1.4013845962    -6.2152859400
   64      C      -2.4461066274    -2.6537971918    -2.9524850801
   65      H      -3.0106571067    -3.5283331805    -3.2742334479
   66      H      -1.4488120285    -2.7267847913    -3.3924538446
   67      H      -2.3239662075    -2.7211609902    -1.8692554580
   68      C      -2.5979015621     2.3644861187    -3.0151143808
   69      H      -3.2194249180     3.1947686056    -3.3496095502
   70      H      -1.6114799142     2.4909258784    -3.4669741975
   71      H      -2.4701298496     2.4644218696    -1.9351508324
   72      C       2.7370116299    -0.1549079503     0.0807251283
   73      C       3.3147991660    -1.3864273874     0.3837658239
   74      C       4.5259081532    -1.4496051388     1.0692969052
   75      H       4.9472533760    -2.4223859171     1.2885534732
   76      C       5.1691014815    -0.2810313956     1.4559152255
   77      O       6.3428559840    -0.2429754518     2.1216706607
   78      C       4.5962287953     0.9515747035     1.1521702238
   79      H       5.1075500730     1.8565841346     1.4579972471
   80      C       3.3932352498     1.0200401754     0.4710739534
   81      C       6.9572472402    -1.4566629461     2.4606250441
   82      H       7.8749098930    -1.2050560598     2.9883337115
   83      H       7.2163900299    -2.0529695373     1.5793486487
   84      H       6.3339879188    -2.0689458371     3.1210347075
   85      C       2.7798453746     2.3515509406     0.1397103382
   86      H       3.3872865629     3.1816423976     0.4984369615
   87      H       2.6582924823     2.4739066898    -0.9391797204
   88      H       1.7869472765     2.4535200603     0.5839973602
   89      C       2.6236556665    -2.6542991751    -0.0379211880
   90      H       3.1736059879    -3.5430133726     0.2706960774
   91      H       2.5081330900    -2.7012195734    -1.1232912276
   92      H       1.6217069414    -2.7237835047     0.3921302364
 ----------------------------------------------------------------

   12   -2123.8010063910      3.34E-10 Convergence criterion met
 Total energy in the final basis set = -2123.80100639
 Final energy is   -2123.80100639099
 **  OPTIMIZATION CONVERGED  **

                    Orbital Energies (a.u.)
 --------------------------------------------------------------

 Alpha MOs
 -- Occupied --
-19.522 -19.522 -10.498 -10.498 -10.488 -10.488 -10.462 -10.462
-10.462 -10.462 -10.462 -10.462 -10.461 -10.461 -10.460 -10.460
-10.460 -10.460 -10.459 -10.459 -10.458 -10.458 -10.458 -10.458
-10.457 -10.457 -10.457 -10.457 -10.451 -10.451 -10.450 -10.449
-10.449 -10.449 -10.448 -10.448 -10.444 -10.444 -10.431 -10.430
-10.430 -10.430 -10.429 -10.428 -10.426 -10.426 -10.426 -10.425
-10.424 -10.424 -10.412 -10.410  -6.944  -6.944  -1.180  -1.179
 -1.013  -1.013  -0.960  -0.956  -0.951  -0.950  -0.931  -0.931
 -0.906  -0.898  -0.869  -0.868  -0.858  -0.851  -0.851  -0.846
 -0.845  -0.844  -0.818  -0.811  -0.810  -0.801  -0.788  -0.788
 -0.764  -0.763  -0.754  -0.753  -0.732  -0.726  -0.724  -0.718
 -0.687  -0.680  -0.677  -0.662  -0.659  -0.647  -0.644  -0.644
 -0.641  -0.641  -0.593  -0.590  -0.590  -0.586  -0.582  -0.582
 -0.581  -0.573  -0.572  -0.557  -0.556  -0.541  -0.541  -0.534
 -0.533  -0.532  -0.526  -0.521  -0.510  -0.505  -0.500  -0.494
 -0.493  -0.489  -0.488  -0.487  -0.483  -0.481  -0.481  -0.479
 -0.477  -0.474  -0.471  -0.470  -0.468  -0.466  -0.463  -0.462
 -0.462  -0.455  -0.455  -0.452  -0.442  -0.440  -0.439  -0.439
 -0.431  -0.424  -0.423  -0.420  -0.419  -0.417  -0.416  -0.409
 -0.399  -0.398  -0.397  -0.392  -0.392  -0.392  -0.390  -0.388
 -0.376  -0.373  -0.371  -0.364  -0.360  -0.355  -0.352  -0.349
 -0.337  -0.335  -0.316  -0.310  -0.293  -0.292  -0.277  -0.273
 -0.272  -0.259  -0.254  -0.253  -0.247  -0.244

          Ground-State Mulliken Net Atomic Charges

     Atom                 Charge (a.u.)
  ----------------------------------------
      1 C                    -0.154939
      2 C                    -0.395121
      3 H                     0.234215
      4 C                     0.112235
      5 C                     0.086446
      6 C                    -0.385272
      7 H                     0.234089
      8 C                    -0.154399
      9 C                     0.196883
     10 C                    -0.386681
     11 H                     0.220868
     12 C                    -0.063132
     13 C                     0.253127
     14 C                     0.195359
     15 C                    -0.376847
     16 H                     0.220737
     17 C                    -0.332809
     18 H                     0.219434
     19 C                    -0.206252
     20 H                     0.226102
     21 C                    -0.202942
     22 H                     0.225807
     23 C                    -0.337486
     24 H                     0.219800
     25 B                     0.703406
     26 C                    -0.155408
     27 C                    -0.394484
     28 H                     0.235565
     29 C                     0.111468
     30 C                     0.085398
     31 C                    -0.384316
     32 H                     0.235356
     33 C                    -0.153750
     34 C                     0.198542
     35 C                    -0.387329
     36 H                     0.220973
     37 C                    -0.064065
     38 C                     0.251476
     39 C                     0.196359
     40 C                    -0.377705
     41 H                     0.220776
     42 C                    -0.202909
     43 H                     0.225681
     44 C                    -0.336986
     45 H                     0.219791
     46 C                    -0.332060
     47 H                     0.219363
     48 C                    -0.205802
     49 H                     0.226149
     50 B                     0.702173
     51 C                    -0.223815
     52 C                     0.064919
     53 C                    -0.432751
     54 H                     0.220686
     55 C                     0.402970
     56 O                    -0.454546
     57 C                    -0.383240
     58 H                     0.220588
     59 C                     0.063254
     60 C                    -0.405187
     61 H                     0.238870
     62 H                     0.203392
     63 H                     0.202867
     64 C                    -0.761469
     65 H                     0.237426
     66 H                     0.244414
     67 H                     0.244512
     68 C                    -0.759139
     69 H                     0.231758
     70 H                     0.245331
     71 H                     0.245568
     72 C                    -0.219033
     73 C                     0.063565
     74 C                    -0.437740
     75 H                     0.220764
     76 C                     0.403229
     77 O                    -0.454416
     78 C                    -0.382792
     79 H                     0.219969
     80 C                     0.066846
     81 C                    -0.405832
     82 H                     0.238799
     83 H                     0.203087
     84 H                     0.203394
     85 C                    -0.761270
     86 H                     0.237017
     87 H                     0.244197
     88 H                     0.244260
     89 C                    -0.762918
     90 H                     0.232468
     91 H                     0.246688
     92 H                     0.246422
  ----------------------------------------
  Sum of atomic charges =     0.000000

                    Cartesian Multipole Moments
 -----------------------------------------------------------------
    Charge (ESU x 10^10)
                 0.0000
    Dipole Moment (Debye)
         X      -0.1970      Y       0.0210      Z      -0.1102
       Tot       0.2267
    Quadrupole Moments (Debye-Ang)
        XX    -266.7452     XY     -17.3029     YY    -310.3040
        XZ      -1.4929     YZ     -10.0349     ZZ    -264.7685

 Total job time:  5862.70s(wall), 23908.92s(cpu)
        *  Thank you very much for using Q-Chem.  Have a nice day.  *
