 Q-Chem 5.0, Q-Chem, Inc., Pleasanton, CA (2017)
 Q-Chem 5.0.1 for Intel X86 EM64T Linux

User input:
--------------------------------------------------------------
$rem
threads 4
jobtype	opt
method PBEh-3c
basis def2-mSVP
mem_static	1024
mem_total	4000
sym_ignore	true
scf_convergence	9
solvent_method	pcm
$end

$molecule
read gsopt.mol
$end

$solvent
dielectric	1.0001
$end

$pcm
theory iefpcm
$end
--------------------------------------------------------------

   17   -2123.7984754880      6.26E-10 Convergence criterion met
 Total energy in the final basis set = -2123.79847549
   15   -2123.8004075565      5.31E-10 Convergence criterion met
 Total energy in the final basis set = -2123.80040756
   15   -2123.8010281721      4.92E-10 Convergence criterion met
 Total energy in the final basis set = -2123.80102817
   15   -2123.8010282246      4.08E-10 Convergence criterion met
 Total energy in the final basis set = -2123.80102822
   13   -2123.8010229355      6.53E-10 Convergence criterion met
 Total energy in the final basis set = -2123.80102294
   13   -2123.8010961666      3.99E-10 Convergence criterion met
 Total energy in the final basis set = -2123.80109617
   12   -2123.8011410754      5.37E-10 Convergence criterion met
 Total energy in the final basis set = -2123.80114108
   12   -2123.8011544636      3.88E-10 Convergence criterion met
 Total energy in the final basis set = -2123.80115446
   12   -2123.8011400124      3.43E-10 Convergence criterion met
 Total energy in the final basis set = -2123.80114001
   11   -2123.8011250838      7.33E-10 Convergence criterion met
 Total energy in the final basis set = -2123.80112508
   10   -2123.8011221777      4.03E-10 Convergence criterion met
 Total energy in the final basis set = -2123.80112218

             Standard Nuclear Orientation (Angstroms)
    I     Atom           X                Y                Z
 ----------------------------------------------------------------
    1      C       0.0187710286     0.4692522743     0.0847392772
    2      C       0.0136981136     0.3407723836     1.4788427659
    3      H       0.9542942601     0.2328494325     2.0082213819
    4      C      -1.1867064789     0.3455855735     2.1709082371
    5      C      -2.4005332669     0.4813726107     1.4630946736
    6      C      -2.4081307342     0.6010106213     0.0869852988
    7      H      -3.3453029721     0.6918951687    -0.4520547415
    8      C      -1.2045962579     0.5968323813    -0.6169015700
    9      C      -3.5033894856     0.4482791028     2.4167317939
   10      C      -4.8671503256     0.5309455375     2.3187784071
   11      H      -5.3661698702     0.6565153752     1.3656595800
   12      C      -2.9198086504     0.2860349945     3.6842394246
   13      C      -3.6471482800     0.1966756435     4.8647244884
   14      C      -1.5158782593     0.2172025299     3.5945903520
   15      C      -0.8057896841     0.0492113599     4.7524757931
   16      H       0.2749092409    -0.0155289923     4.7561150260
   17      C      -5.6332540486     0.4473847890     3.5041199523
   18      H      -6.7110647220     0.5125877057     3.4302595183
   19      C      -5.0554616906     0.2845779073     4.7413849635
   20      H      -5.6815386810     0.2229906143     5.6230237652
   21      C      -1.5154236113    -0.0446837459     5.9743333476
   22      H      -0.9508143158    -0.1781791386     6.8876072222
   23      C      -2.8869000704     0.0249960608     6.0449340021
   24      H      -3.3831494124    -0.0535555687     7.0043145197
   25      B       1.3605539729     0.4544088644    -0.7047703082
   26      B      -1.2203185697     0.7145335942    -2.1665688397
   27      C       0.1256308896     0.7381880134    -2.9413575306
   28      C       0.1194210072     0.8584154165    -4.3306057352
   29      H      -0.8232272492     0.9498604796    -4.8592206071
   30      C       1.3111652646     0.8466111578    -5.0272727655
   31      C       2.5423365215     0.7179571540    -4.3488486883
   32      C       2.5568763593     0.6037396026    -2.9693206094
   33      H       3.4955605304     0.4980262884    -2.4364980724
   34      C       1.3543266719     0.6111537042    -2.2531514652
   35      C       3.6093214705     0.7087374296    -5.3567478952
   36      C       4.9740529421     0.5956192555    -5.3402692719
   37      H       5.5285560919     0.4931210093    -4.4159952166
   38      C       2.9698628176     0.8306432527    -6.6059148819
   39      C       3.6235549553     0.8412683347    -7.8335467767
   40      C       1.5741394664     0.9205272304    -6.4622692904
   41      C       0.7982607562     1.0299200201    -7.5868414874
   42      H      -0.2813488668     1.0996081804    -7.5336435179
   43      C       5.6705489271     0.6079711667    -6.5732749801
   44      H       6.7486825233     0.5175139010    -6.5557893691
   45      C       5.0324848183     0.7250626318    -7.7854373295
   46      H       5.6093377200     0.7249730752    -8.7022000923
   47      C       1.4371385516     1.0474338423    -8.8487784517
   48      H       0.8258586884     1.1329886380    -9.7378492410
   49      C       2.8025114579     0.9559656707    -8.9819536651
   50      H       3.2494038116     0.9691154906    -9.9685898694
   51      C      -2.5768527956     0.7778860480    -2.9585852489
   52      C      -3.1751870985    -0.3963328584    -3.4180133736
   53      C      -4.3616093761    -0.3514482901    -4.1470662569
   54      H      -4.7947548704    -1.2832092097    -4.4881991507
   55      C      -4.9650507747     0.8670753712    -4.4256329241
   56      O      -6.1132087744     1.0090593132    -5.1213291459
   57      C      -4.3733175886     2.0423321387    -3.9715969470
   58      H      -4.8507592961     2.9890956148    -4.1945348767
   59      C      -3.1939002278     2.0039926706    -3.2475159506
   60      C      -6.7503409880    -0.1432822559    -5.6038787581
   61      H      -7.6470058897     0.1904857220    -6.1221565256
   62      H      -6.1269894090    -0.6985490636    -6.3126995690
   63      H      -7.0477980346    -0.8230582353    -4.7986396432
   64      C      -2.5323597129    -1.7261913091    -3.1360169432
   65      H      -3.1298062417    -2.5555187853    -3.5142662441
   66      H      -1.5454057045    -1.7964641989    -3.5990594130
   67      H      -2.3947128472    -1.8843527873    -2.0642213959
   68      C      -2.5623798089     3.2817078525    -2.7721786028
   69      H      -3.1498758317     4.1550433923    -3.0530744830
   70      H      -1.5622587322     3.4092662273    -3.1927198560
   71      H      -2.4559249338     3.2916254171    -1.6853311625
   72      C       2.7193938554     0.2663272827     0.0486536332
   73      C       3.4280839583     1.3685799579     0.5220825690
   74      C       4.6445438450     1.1974242870     1.1799050955
   75      H       5.1692074146     2.0745904873     1.5364853752
   76      C       5.1612464834    -0.0781017074     1.3674530927
   77      O       6.3281762394    -0.3428214871     1.9927231535
   78      C       4.4566800251    -1.1819369606     0.8936691364
   79      H       4.8694761064    -2.1721385903     1.0460948833
   80      C       3.2474990366    -1.0181688243     0.2401632888
   81      C       7.0682112732     0.7304192382     2.5071315140
   82      H       7.9558635828     0.3037227628     2.9697338042
   83      H       6.5151838424     1.2901177772     3.2688900977
   84      H       7.3860836161     1.4297854632     1.7267697813
   85      C       2.4946442128    -2.2139423313    -0.2742644314
   86      H       2.9995467822    -3.1483452401    -0.0315579848
   87      H       2.3806100328    -2.1740591113    -1.3601489917
   88      H       1.4888475955    -2.2642698242     0.1493804295
   89      C       2.8750563338     2.7509033318     0.3106917735
   90      H       3.5144955304     3.5184684110     0.7457638931
   91      H       2.7687745373     2.9767435147    -0.7529414717
   92      H       1.8841855279     2.8573494232     0.7582620074
 ----------------------------------------------------------------

    9   -2123.8011229755      4.83E-10 Convergence criterion met
 Total energy in the final basis set = -2123.80112298
 Final energy is   -2123.80112297555
 **  OPTIMIZATION CONVERGED  **

                    Orbital Energies (a.u.)
 --------------------------------------------------------------

 Alpha MOs
 -- Occupied --
-19.522 -19.522 -10.498 -10.498 -10.488 -10.488 -10.462 -10.462
-10.462 -10.462 -10.462 -10.462 -10.461 -10.460 -10.460 -10.460
-10.460 -10.460 -10.459 -10.459 -10.458 -10.458 -10.458 -10.457
-10.457 -10.457 -10.457 -10.457 -10.451 -10.450 -10.450 -10.449
-10.449 -10.449 -10.448 -10.448 -10.444 -10.444 -10.431 -10.431
-10.430 -10.430 -10.429 -10.428 -10.426 -10.426 -10.425 -10.425
-10.424 -10.423 -10.412 -10.410  -6.944  -6.944  -1.180  -1.179
 -1.014  -1.013  -0.960  -0.956  -0.951  -0.950  -0.931  -0.931
 -0.906  -0.898  -0.869  -0.869  -0.858  -0.851  -0.851  -0.846
 -0.845  -0.844  -0.819  -0.811  -0.810  -0.802  -0.788  -0.788
 -0.764  -0.763  -0.754  -0.753  -0.732  -0.726  -0.724  -0.718
 -0.687  -0.680  -0.677  -0.662  -0.659  -0.648  -0.645  -0.644
 -0.641  -0.641  -0.593  -0.590  -0.590  -0.586  -0.582  -0.582
 -0.581  -0.573  -0.572  -0.557  -0.556  -0.541  -0.541  -0.534
 -0.533  -0.533  -0.526  -0.521  -0.510  -0.505  -0.500  -0.494
 -0.493  -0.489  -0.488  -0.487  -0.483  -0.481  -0.481  -0.479
 -0.477  -0.474  -0.471  -0.470  -0.468  -0.466  -0.463  -0.462
 -0.462  -0.455  -0.455  -0.452  -0.442  -0.440  -0.439  -0.439
 -0.431  -0.424  -0.423  -0.420  -0.419  -0.417  -0.416  -0.409
 -0.399  -0.398  -0.396  -0.392  -0.392  -0.392  -0.390  -0.388
 -0.376  -0.373  -0.371  -0.364  -0.360  -0.355  -0.352  -0.349
 -0.337  -0.335  -0.316  -0.310  -0.293  -0.292  -0.277  -0.273
 -0.273  -0.259  -0.254  -0.253  -0.247  -0.244

          Ground-State Mulliken Net Atomic Charges

     Atom                 Charge (a.u.)
  ----------------------------------------
      1 C                    -0.154533
      2 C                    -0.395312
      3 H                     0.234236
      4 C                     0.113896
      5 C                     0.086307
      6 C                    -0.385300
      7 H                     0.233845
      8 C                    -0.153630
      9 C                     0.194492
     10 C                    -0.377437
     11 H                     0.220810
     12 C                    -0.061993
     13 C                     0.254250
     14 C                     0.196257
     15 C                    -0.387734
     16 H                     0.220575
     17 C                    -0.205849
     18 H                     0.226224
     19 C                    -0.333268
     20 H                     0.219484
     21 C                    -0.202543
     22 H                     0.225691
     23 C                    -0.338234
     24 H                     0.219816
     25 B                     0.701614
     26 B                     0.699950
     27 C                    -0.152472
     28 C                    -0.384832
     29 H                     0.235861
     30 C                     0.086997
     31 C                     0.110597
     32 C                    -0.394351
     33 H                     0.235462
     34 C                    -0.154555
     35 C                     0.197865
     36 C                    -0.386536
     37 H                     0.220913
     38 C                    -0.063846
     39 C                     0.251184
     40 C                     0.195865
     41 C                    -0.378228
     42 H                     0.220994
     43 C                    -0.202959
     44 H                     0.225689
     45 C                    -0.336851
     46 H                     0.219769
     47 C                    -0.205704
     48 H                     0.226114
     49 C                    -0.332193
     50 H                     0.219386
     51 C                    -0.223369
     52 C                     0.062284
     53 C                    -0.436056
     54 H                     0.220928
     55 C                     0.403297
     56 O                    -0.454674
     57 C                    -0.380326
     58 H                     0.220344
     59 C                     0.065972
     60 C                    -0.405718
     61 H                     0.238968
     62 H                     0.203299
     63 H                     0.203573
     64 C                    -0.761564
     65 H                     0.232440
     66 H                     0.246356
     67 H                     0.246420
     68 C                    -0.758743
     69 H                     0.236781
     70 H                     0.243522
     71 H                     0.243459
     72 C                    -0.218783
     73 C                     0.067079
     74 C                    -0.435437
     75 H                     0.220687
     76 C                     0.403218
     77 O                    -0.454236
     78 C                    -0.384848
     79 H                     0.220239
     80 C                     0.062520
     81 C                    -0.405688
     82 H                     0.238801
     83 H                     0.203252
     84 H                     0.202823
     85 C                    -0.762639
     86 H                     0.237522
     87 H                     0.245018
     88 H                     0.244859
     89 C                    -0.760928
     90 H                     0.231936
     91 H                     0.245549
     92 H                     0.246083
  ----------------------------------------
  Sum of atomic charges =    -0.000000

                    Cartesian Multipole Moments
 -----------------------------------------------------------------
    Charge (ESU x 10^10)
                -0.0000
    Dipole Moment (Debye)
         X      -0.0145      Y      -0.2140      Z      -0.0409
       Tot       0.2183
    Quadrupole Moments (Debye-Ang)
        XX    -266.0838     XY      14.5290     YY    -313.5165
        XZ       0.4170     YZ       7.0998     ZZ    -262.7929

 Total job time:  30180.70s(wall), 65613.69s(cpu)
        *  Thank you very much for using Q-Chem.  Have a nice day.  *
