 Q-Chem 5.0, Q-Chem, Inc., Pleasanton, CA (2017)
 Q-Chem 5.0.1 for Intel X86 EM64T Linux

User input:
--------------------------------------------------------------
$rem
threads 4
jobtype	opt
method PBEh-3c
basis def2-mSVP
mem_static	1024
mem_total	4000
sym_ignore	true
scf_convergence	9
solvent_method	pcm
$end

$molecule
read gsopt.mol
$end

$solvent
dielectric	2.03
$end

$pcm
theory iefpcm
$end
--------------------------------------------------------------

   17   -2123.8096317829      4.34E-10 Convergence criterion met
 Total energy in the final basis set = -2123.80963178
   15   -2123.8115856066      4.37E-10 Convergence criterion met
 Total energy in the final basis set = -2123.81158561
   15   -2123.8122072927      4.27E-10 Convergence criterion met
 Total energy in the final basis set = -2123.81220729
   14   -2123.8122117001      9.81E-10 Convergence criterion met
 Total energy in the final basis set = -2123.81221170
   14   -2123.8122189788      7.47E-10 Convergence criterion met
 Total energy in the final basis set = -2123.81221898
   14   -2123.8122936266      6.11E-10 Convergence criterion met
 Total energy in the final basis set = -2123.81229363
   14   -2123.8123343646      5.69E-10 Convergence criterion met
 Total energy in the final basis set = -2123.81233436
   14   -2123.8123486546      5.54E-10 Convergence criterion met
 Total energy in the final basis set = -2123.81234865
   14   -2123.8123340967      5.57E-10 Convergence criterion met
 Total energy in the final basis set = -2123.81233410
   14   -2123.8123189649      5.47E-10 Convergence criterion met
 Total energy in the final basis set = -2123.81231896
   14   -2123.8123156115      5.35E-10 Convergence criterion met
 Total energy in the final basis set = -2123.81231561

             Standard Nuclear Orientation (Angstroms)
    I     Atom           X                Y                Z
 ----------------------------------------------------------------
    1      C       0.0188204728     0.4687226254     0.0845914604
    2      C       0.0134116396     0.3406934003     1.4789797247
    3      H       0.9526120899     0.2325234465     2.0106257179
    4      C      -1.1873341566     0.3463032294     2.1711700413
    5      C      -2.4013097635     0.4828958168     1.4629677385
    6      C      -2.4085528339     0.6026971129     0.0865151291
    7      H      -3.3466953739     0.6947725374    -0.4504769162
    8      C      -1.2047740600     0.5971555961    -0.6174382372
    9      C      -3.5045225773     0.4500563464     2.4162293274
   10      C      -4.8687487952     0.5329464884     2.3175240045
   11      H      -5.3677296232     0.6587257011     1.3643130041
   12      C      -2.9207213742     0.2872700219     3.6838151054
   13      C      -3.6485377398     0.1975563207     4.8644271212
   14      C      -1.5165528992     0.2179819873     3.5948792003
   15      C      -0.8060885353     0.0495948296     4.7531319586
   16      H       0.2746867413    -0.0152719705     4.7572294666
   17      C      -5.6350802388     0.4489475013     3.5031928400
   18      H      -6.7129228847     0.5141905434     3.4289911978
   19      C      -5.0572632394     0.2856155545     4.7410808312
   20      H      -5.6832613524     0.2236114826     5.6228294969
   21      C      -1.5165422338    -0.0445019783     5.9750026746
   22      H      -0.9519998693    -0.1782621125     6.8883449625
   23      C      -2.8886662750     0.0253077182     6.0453118111
   24      H      -3.3854973411    -0.0533972667     7.0044497742
   25      B       1.3611269866     0.4526707921    -0.7046886462
   26      B      -1.2205742941     0.7140543006    -2.1675121082
   27      C       0.1259665904     0.7374675892    -2.9419929340
   28      C       0.1201084871     0.8588867761    -4.3313737550
   29      H      -0.8212330343     0.9512176979    -4.8619802760
   30      C       1.3122136288     0.8476662293    -5.0281064529
   31      C       2.5435405967     0.7177464925    -4.3493735323
   32      C       2.5576982625     0.6021583104    -2.9696185532
   33      H       3.4973518702     0.4958677990    -2.4387788956
   34      C       1.3548828739     0.6095451966    -2.2534176291
   35      C       3.6109395803     0.7094217985    -5.3568410076
   36      C       4.9761345273     0.5955231348    -5.3397179992
   37      H       5.5305686527     0.4915590294    -4.4154729196
   38      C       2.9713470014     0.8334076571    -6.6059567152
   39      C       3.6255762062     0.8456064981    -7.8337103552
   40      C       1.5753501706     0.9236072540    -6.4629826695
   41      C       0.7991501653     1.0350750983    -7.5877799053
   42      H      -0.2805454760     1.1050086902    -7.5350238741
   43      C       5.6728836713     0.6092677517    -6.5730734411
   44      H       6.7510238014     0.5182055314    -6.5553021146
   45      C       5.0348745880     0.7285807675    -7.7857774499
   46      H       5.6116426240     0.7295600893    -8.7026830008
   47      C       1.4389038211     1.0543147587    -8.8497406086
   48      H       0.8278097324     1.1414779837    -9.7388515696
   49      C       2.8049075123     0.9624919522    -8.9826737185
   50      H       3.2524691368     0.9769239080    -9.9690499524
   51      C      -2.5773143183     0.7771436475    -2.9597374265
   52      C      -3.1778526956    -0.3978062130    -3.4158237458
   53      C      -4.3650451518    -0.3536035354    -4.1445129554
   54      H      -4.7997708505    -1.2856439041    -4.4829753365
   55      C      -4.9672181482     0.8654223113    -4.4261726970
   56      O      -6.1155687755     1.0064021426    -5.1215208136
   57      C      -4.3731065092     2.0415026652    -3.9754917592
   58      H      -4.8479934346     2.9896008018    -4.1997139806
   59      C      -3.1927440819     2.0035098076    -3.2515450393
   60      C      -6.7567144792    -0.1498192765    -5.5998901444
   61      H      -7.6537093151     0.1835464181    -6.1174686342
   62      H      -6.1341645800    -0.7067900694    -6.3071979466
   63      H      -7.0523186177    -0.8246891520    -4.7906217390
   64      C      -2.5375395153    -1.7284026143    -3.1310923613
   65      H      -3.1368184912    -2.5569797569    -3.5080157872
   66      H      -1.5505636531    -1.8013869715    -3.5938080822
   67      H      -2.4000007658    -1.8847096004    -2.0589582056
   68      C      -2.5604494421     3.2823198035    -2.7799192993
   69      H      -3.1479934396     4.1549933287    -3.0629057111
   70      H      -1.5604118760     3.4083895762    -3.2012097776
   71      H      -2.4532883108     3.2948807571    -1.6931163896
   72      C       2.7201135020     0.2640390255     0.0490096212
   73      C       3.4293476629     1.3666068469     0.5223859977
   74      C       4.6462126398     1.1956938885     1.1804753773
   75      H       5.1713707703     2.0727525268     1.5368383493
   76      C       5.1628061805    -0.0803443728     1.3686033127
   77      O       6.3298339134    -0.3442204976     1.9938089573
   78      C       4.4575418171    -1.1845901214     0.8950583631
   79      H       4.8684998614    -2.1759930901     1.0468950416
   80      C       3.2478219607    -1.0206557998     0.2409589756
   81      C       7.0723737306     0.7326402426     2.5067291695
   82      H       7.9604496239     0.3064768742     2.9685855442
   83      H       6.5189799801     1.2920784429     3.2675984711
   84      H       7.3877049759     1.4292941734     1.7237236999
   85      C       2.4957541451    -2.2172957067    -0.2728780317
   86      H       3.0010346451    -3.1511286535    -0.0286510767
   87      H       2.3825757508    -2.1784938878    -1.3589343918
   88      H       1.4894644242    -2.2675222168     0.1497118043
   89      C       2.8773128837     2.7494516852     0.3112532741
   90      H       3.5173215102     3.5160391896     0.7471014121
   91      H       2.7715165833     2.9757438376    -0.7523870540
   92      H       1.8861666815     2.8562980876     0.7582393640
 ----------------------------------------------------------------

   14   -2123.8123164729      5.35E-10 Convergence criterion met
 Total energy in the final basis set = -2123.81231647
 Final energy is   -2123.81231647294
 **  OPTIMIZATION CONVERGED  **

                    Orbital Energies (a.u.)
 --------------------------------------------------------------

 Alpha MOs
 -- Occupied --
-19.524 -19.524 -10.501 -10.500 -10.485 -10.485 -10.463 -10.463
-10.463 -10.463 -10.463 -10.462 -10.462 -10.462 -10.460 -10.460
-10.460 -10.460 -10.460 -10.460 -10.460 -10.460 -10.458 -10.458
-10.457 -10.457 -10.457 -10.457 -10.453 -10.452 -10.452 -10.451
-10.451 -10.451 -10.450 -10.450 -10.445 -10.445 -10.432 -10.432
-10.432 -10.432 -10.431 -10.430 -10.428 -10.428 -10.425 -10.425
-10.424 -10.424 -10.414 -10.412  -6.946  -6.946  -1.180  -1.180
 -1.015  -1.014  -0.961  -0.958  -0.952  -0.951  -0.931  -0.931
 -0.907  -0.899  -0.870  -0.870  -0.859  -0.852  -0.852  -0.847
 -0.845  -0.844  -0.820  -0.812  -0.810  -0.803  -0.788  -0.788
 -0.765  -0.764  -0.755  -0.754  -0.733  -0.726  -0.724  -0.718
 -0.687  -0.681  -0.677  -0.663  -0.660  -0.648  -0.645  -0.645
 -0.642  -0.642  -0.593  -0.591  -0.590  -0.586  -0.583  -0.582
 -0.581  -0.573  -0.572  -0.558  -0.557  -0.542  -0.541  -0.534
 -0.532  -0.532  -0.526  -0.521  -0.511  -0.505  -0.500  -0.495
 -0.493  -0.488  -0.488  -0.487  -0.483  -0.483  -0.483  -0.479
 -0.477  -0.475  -0.472  -0.471  -0.469  -0.465  -0.464  -0.463
 -0.462  -0.456  -0.456  -0.452  -0.443  -0.440  -0.439  -0.438
 -0.433  -0.424  -0.424  -0.422  -0.420  -0.418  -0.417  -0.410
 -0.400  -0.399  -0.396  -0.393  -0.393  -0.392  -0.390  -0.388
 -0.377  -0.375  -0.372  -0.365  -0.361  -0.357  -0.354  -0.350
 -0.339  -0.337  -0.318  -0.312  -0.294  -0.293  -0.279  -0.275
 -0.275  -0.261  -0.256  -0.254  -0.249  -0.246

          Ground-State Mulliken Net Atomic Charges

     Atom                 Charge (a.u.)
  ----------------------------------------
      1 C                    -0.155533
      2 C                    -0.397389
      3 H                     0.240144
      4 C                     0.106629
      5 C                     0.079130
      6 C                    -0.387388
      7 H                     0.239992
      8 C                    -0.154640
      9 C                     0.187306
     10 C                    -0.382759
     11 H                     0.234946
     12 C                    -0.062616
     13 C                     0.241642
     14 C                     0.188951
     15 C                    -0.392779
     16 H                     0.234775
     17 C                    -0.218597
     18 H                     0.240050
     19 C                    -0.339863
     20 H                     0.234425
     21 C                    -0.215532
     22 H                     0.239473
     23 C                    -0.344617
     24 H                     0.234780
     25 B                     0.700261
     26 B                     0.698785
     27 C                    -0.153509
     28 C                    -0.386726
     29 H                     0.241523
     30 C                     0.080056
     31 C                     0.103222
     32 C                    -0.396182
     33 H                     0.241116
     34 C                    -0.155623
     35 C                     0.190507
     36 C                    -0.391587
     37 H                     0.235029
     38 C                    -0.064424
     39 C                     0.238587
     40 C                     0.188697
     41 C                    -0.383571
     42 H                     0.235019
     43 C                    -0.215889
     44 H                     0.239457
     45 C                    -0.343250
     46 H                     0.234733
     47 C                    -0.218459
     48 H                     0.239960
     49 C                    -0.338823
     50 H                     0.234389
     51 C                    -0.222738
     52 C                     0.056633
     53 C                    -0.445983
     54 H                     0.234934
     55 C                     0.398060
     56 O                    -0.462235
     57 C                    -0.392849
     58 H                     0.229143
     59 C                     0.061040
     60 C                    -0.416277
     61 H                     0.246144
     62 H                     0.210863
     63 H                     0.211123
     64 C                    -0.767429
     65 H                     0.239927
     66 H                     0.248464
     67 H                     0.248648
     68 C                    -0.764669
     69 H                     0.243193
     70 H                     0.246176
     71 H                     0.246039
     72 C                    -0.218000
     73 C                     0.061747
     74 C                    -0.445485
     75 H                     0.234833
     76 C                     0.397884
     77 O                    -0.461810
     78 C                    -0.397170
     79 H                     0.229023
     80 C                     0.056934
     81 C                    -0.416250
     82 H                     0.245976
     83 H                     0.210732
     84 H                     0.210416
     85 C                    -0.768313
     86 H                     0.244021
     87 H                     0.247390
     88 H                     0.247333
     89 C                    -0.766883
     90 H                     0.239410
     91 H                     0.247872
     92 H                     0.248307
  ----------------------------------------
  Sum of atomic charges =    -0.000000

                    Cartesian Multipole Moments
 -----------------------------------------------------------------
    Charge (ESU x 10^10)
                -0.0000
    Dipole Moment (Debye)
         X      -0.0202      Y      -0.2347      Z      -0.0436
       Tot       0.2396
    Quadrupole Moments (Debye-Ang)
        XX    -260.6431     XY      16.3832     YY    -312.6592
        XZ      -0.7045     YZ       7.8707     ZZ    -255.8562

 Total job time:  25773.45s(wall), 59234.80s(cpu)
        *  Thank you very much for using Q-Chem.  Have a nice day.  *
