 Q-Chem 5.0, Q-Chem, Inc., Pleasanton, CA (2017)
 Q-Chem 5.0.1 for Intel X86 EM64T Linux

User input:
--------------------------------------------------------------
$rem
threads 4
jobtype	opt
method PBEh-3c
basis def2-mSVP
mem_static	1024
mem_total	4000
sym_ignore	true
scf_convergence	9
solvent_method	pcm
$end

$molecule
read gsopt.mol
$end

$solvent
dielectric	8.93
$end

$pcm
theory iefpcm
$end
--------------------------------------------------------------

   16   -2123.8241488319      9.44E-10 Convergence criterion met
 Total energy in the final basis set = -2123.82414883
   15   -2123.8262024654      5.78E-10 Convergence criterion met
 Total energy in the final basis set = -2123.82620247
   15   -2123.8268138789      5.11E-10 Convergence criterion met
 Total energy in the final basis set = -2123.82681388
   15   -2123.8268319951      4.79E-10 Convergence criterion met
 Total energy in the final basis set = -2123.82683200
   15   -2123.8268480300      3.56E-10 Convergence criterion met
 Total energy in the final basis set = -2123.82684803
   14   -2123.8269158149      9.38E-10 Convergence criterion met
 Total energy in the final basis set = -2123.82691581
   14   -2123.8269502485      9.00E-10 Convergence criterion met
 Total energy in the final basis set = -2123.82695025
   14   -2123.8269626309      8.97E-10 Convergence criterion met
 Total energy in the final basis set = -2123.82696263
   14   -2123.8269508115      9.02E-10 Convergence criterion met
 Total energy in the final basis set = -2123.82695081
   14   -2123.8269371837      9.02E-10 Convergence criterion met
 Total energy in the final basis set = -2123.82693718
   14   -2123.8269344456      9.17E-10 Convergence criterion met
 Total energy in the final basis set = -2123.82693445

             Standard Nuclear Orientation (Angstroms)
    I     Atom           X                Y                Z
 ----------------------------------------------------------------
    1      C       0.0184994988     0.4694756309     0.0846018439
    2      C       0.0137079777     0.3479290583     1.4798795906
    3      H       0.9514481951     0.2432794591     2.0146167883
    4      C      -1.1871349797     0.3561638263     2.1728801010
    5      C      -2.4022026203     0.4875486437     1.4642055959
    6      C      -2.4099346899     0.6013548605     0.0866796390
    7      H      -3.3498282939     0.6908542918    -0.4475074621
    8      C      -1.2060523652     0.5943134255    -0.6178413119
    9      C      -3.5050607469     0.4583781539     2.4180791268
   10      C      -4.8702362510     0.5390144084     2.3194318243
   11      H      -5.3702250489     0.6585516440     1.3658612669
   12      C      -2.9195049396     0.3036362121     3.6862996820
   13      C      -3.6466782981     0.2203028294     4.8684808737
   14      C      -1.5149176407     0.2359147096     3.5975539577
   15      C      -0.8025930817     0.0765505897     4.7569022832
   16      H       0.2783963026     0.0141902859     4.7610303164
   17      C      -5.6355237625     0.4608761297     3.5068492693
   18      H      -6.7135265831     0.5241694189     3.4329641809
   19      C      -5.0562149547     0.3056936708     4.7460657173
   20      H      -5.6808714267     0.2482417998     5.6291120756
   21      C      -1.5128230720    -0.0107648469     5.9800493237
   22      H      -0.9473874845    -0.1372345327     6.8939042119
   23      C      -2.8859167942     0.0569778341     6.0507474454
   24      H      -3.3827113912    -0.0161264045     7.0103774212
   25      B       1.3612571596     0.4499883026    -0.7049069307
   26      B      -1.2227647253     0.7073714880    -2.1687639910
   27      C       0.1245859846     0.7341814776    -2.9429342966
   28      C       0.1186922184     0.8575796342    -4.3324776060
   29      H      -0.8212165912     0.9478409599    -4.8657807264
   30      C       1.3114759170     0.8523266129    -5.0292127388
   31      C       2.5436706063     0.7263068767    -4.3499001103
   32      C       2.5576456794     0.6072832381    -2.9699147450
   33      H       3.4989890780     0.5033013361    -2.4418064993
   34      C       1.3543373188     0.6091224727    -2.2539035790
   35      C       3.6118542573     0.7257318160    -5.3565292738
   36      C       4.9784424403     0.6191995683    -5.3384867816
   37      H       5.5332280221     0.5163571360    -4.4142531910
   38      C       2.9715941678     0.8496513894    -6.6056920674
   39      C       3.6267649547     0.8684842915    -7.8335460862
   40      C       1.5746666830     0.9326659001    -6.4638539511
   41      C       0.7978059868     1.0429473824    -7.5892881291
   42      H      -0.2823455727     1.1071596792    -7.5371974549
   43      C       5.6756540715     0.6398635968    -6.5721310109
   44      H       6.7542981714     0.5547808594    -6.5538687056
   45      C       5.0372348055     0.7588692584    -7.7856505792
   46      H       5.6138376128     0.7654899086    -8.7026767807
   47      C       1.4388624603     1.0684518535    -8.8511101478
   48      H       0.8277687095     1.1544138444    -9.7403663266
   49      C       2.8062859956     0.9841040510    -8.9834744608
   50      H       3.2551190458     1.0032744666    -9.9692186794
   51      C      -2.5797298913     0.7663927881    -2.9612039718
   52      C      -3.1771281964    -0.4105589107    -3.4182591414
   53      C      -4.3648941675    -0.3702079514    -4.1472278982
   54      H      -4.7970579437    -1.3032687124    -4.4863685374
   55      C      -4.9707130855     0.8478693524    -4.4285047259
   56      O      -6.1190546599     0.9850711638    -5.1239643050
   57      C      -4.3798255012     2.0261523724    -3.9767917042
   58      H      -4.8554362885     2.9747101523    -4.1992947610
   59      C      -3.1986748898     1.9913268000    -3.2523052760
   60      C      -6.7567157394    -0.1765272972    -5.6067681460
   61      H      -7.6537062646     0.1545153164    -6.1253901102
   62      H      -6.1290057369    -0.7284206718    -6.3124220819
   63      H      -7.0495985489    -0.8521695540    -4.7980818019
   64      C      -2.5336339867    -1.7400636230    -3.1349933953
   65      H      -3.1328350123    -2.5692298237    -3.5103935624
   66      H      -1.5477279572    -1.8111117632    -3.6005054214
   67      H      -2.3922321918    -1.8958496803    -2.0631805923
   68      C      -2.5717673680     3.2728096453    -2.7803574041
   69      H      -3.1612536774     4.1430616273    -3.0667218165
   70      H      -1.5705906668     3.4012471271    -3.1983889679
   71      H      -2.4683398117     3.2869757257    -1.6931518610
   72      C       2.7197955852     0.2542679883     0.0482201210
   73      C       3.4342001693     1.3528537624     0.5250524118
   74      C       4.6505394297     1.1754884727     1.1834667025
   75      H       5.1796600435     2.0492853669     1.5421134308
   76      C       5.1614747515    -0.1039587475     1.3687500139
   77      O       6.3268339241    -0.3737629612     1.9938333611
   78      C       4.4511263935    -1.2044876950     0.8917468079
   79      H       4.8554326391    -2.1995830088     1.0399779427
   80      C       3.2417575553    -1.0334075543     0.2368477122
   81      C       7.0767881653     0.7022475367     2.5097327765
   82      H       7.9627886874     0.2709013861     2.9702623725
   83      H       6.5246252671     1.2615992544     3.2705721684
   84      H       7.3930669100     1.3973168256     1.7266820435
   85      C       2.4861548389    -2.2266140422    -0.2802011486
   86      H       2.9884468704    -3.1624002162    -0.0373310003
   87      H       2.3740591630    -2.1850617955    -1.3663359282
   88      H       1.4790752412    -2.2744440924     0.1409678867
   89      C       2.8896650625     2.7393618550     0.3179830562
   90      H       3.5331686424     3.5003262793     0.7582035746
   91      H       2.7872776855     2.9700554220    -0.7451272021
   92      H       1.8979968050     2.8494520419     0.7632151663
 ----------------------------------------------------------------

   14   -2123.8269353252      9.63E-10 Convergence criterion met
 Total energy in the final basis set = -2123.82693533
 Final energy is   -2123.82693532520
 **  OPTIMIZATION CONVERGED  **

                    Orbital Energies (a.u.)
 --------------------------------------------------------------

 Alpha MOs
 -- Occupied --
-19.527 -19.527 -10.505 -10.505 -10.483 -10.482 -10.467 -10.467
-10.466 -10.466 -10.465 -10.465 -10.465 -10.465 -10.465 -10.464
-10.464 -10.464 -10.462 -10.461 -10.461 -10.461 -10.461 -10.461
-10.458 -10.458 -10.458 -10.458 -10.457 -10.457 -10.456 -10.456
-10.455 -10.455 -10.455 -10.455 -10.449 -10.449 -10.438 -10.437
-10.436 -10.436 -10.435 -10.435 -10.433 -10.433 -10.427 -10.427
-10.427 -10.427 -10.418 -10.417  -6.951  -6.951  -1.182  -1.182
 -1.018  -1.018  -0.965  -0.961  -0.956  -0.955  -0.934  -0.933
 -0.911  -0.903  -0.874  -0.873  -0.862  -0.856  -0.855  -0.850
 -0.847  -0.847  -0.823  -0.815  -0.813  -0.806  -0.789  -0.789
 -0.768  -0.768  -0.757  -0.756  -0.736  -0.728  -0.727  -0.721
 -0.689  -0.684  -0.680  -0.667  -0.662  -0.651  -0.649  -0.648
 -0.645  -0.644  -0.595  -0.594  -0.591  -0.588  -0.584  -0.584
 -0.583  -0.575  -0.574  -0.561  -0.560  -0.545  -0.544  -0.537
 -0.533  -0.532  -0.528  -0.523  -0.514  -0.509  -0.503  -0.498
 -0.496  -0.491  -0.490  -0.488  -0.488  -0.486  -0.485  -0.482
 -0.479  -0.478  -0.474  -0.473  -0.471  -0.466  -0.466  -0.466
 -0.464  -0.459  -0.459  -0.454  -0.446  -0.442  -0.441  -0.440
 -0.437  -0.427  -0.426  -0.426  -0.422  -0.420  -0.419  -0.413
 -0.402  -0.402  -0.398  -0.397  -0.396  -0.394  -0.392  -0.391
 -0.381  -0.378  -0.375  -0.369  -0.365  -0.361  -0.357  -0.355
 -0.343  -0.342  -0.322  -0.316  -0.297  -0.296  -0.284  -0.280
 -0.280  -0.264  -0.260  -0.258  -0.253  -0.251

          Ground-State Mulliken Net Atomic Charges

     Atom                 Charge (a.u.)
  ----------------------------------------
      1 C                    -0.156839
      2 C                    -0.398564
      3 H                     0.247439
      4 C                     0.095481
      5 C                     0.068531
      6 C                    -0.388925
      7 H                     0.247730
      8 C                    -0.156062
      9 C                     0.176560
     10 C                    -0.388185
     11 H                     0.252532
     12 C                    -0.065080
     13 C                     0.222692
     14 C                     0.178111
     15 C                    -0.397730
     16 H                     0.252490
     17 C                    -0.234423
     18 H                     0.257878
     19 C                    -0.346580
     20 H                     0.254513
     21 C                    -0.231697
     22 H                     0.257286
     23 C                    -0.350971
     24 H                     0.254857
     25 B                     0.696982
     26 B                     0.695782
     27 C                    -0.154981
     28 C                    -0.387938
     29 H                     0.248813
     30 C                     0.069494
     31 C                     0.092247
     32 C                    -0.397191
     33 H                     0.248119
     34 C                    -0.157140
     35 C                     0.179699
     36 C                    -0.396676
     37 H                     0.252585
     38 C                    -0.066864
     39 C                     0.219635
     40 C                     0.177931
     41 C                    -0.388927
     42 H                     0.252454
     43 C                    -0.232013
     44 H                     0.257277
     45 C                    -0.349659
     46 H                     0.254870
     47 C                    -0.234291
     48 H                     0.257855
     49 C                    -0.345511
     50 H                     0.254518
     51 C                    -0.222319
     52 C                     0.048523
     53 C                    -0.457170
     54 H                     0.255376
     55 C                     0.391169
     56 O                    -0.470911
     57 C                    -0.407722
     58 H                     0.240373
     59 C                     0.054581
     60 C                    -0.428566
     61 H                     0.253694
     62 H                     0.220405
     63 H                     0.220543
     64 C                    -0.773786
     65 H                     0.251759
     66 H                     0.249087
     67 H                     0.249267
     68 C                    -0.771175
     69 H                     0.252480
     70 H                     0.247743
     71 H                     0.247715
     72 C                    -0.217462
     73 C                     0.054899
     74 C                    -0.456429
     75 H                     0.255398
     76 C                     0.390809
     77 O                    -0.470556
     78 C                    -0.412141
     79 H                     0.240240
     80 C                     0.048795
     81 C                    -0.428552
     82 H                     0.253525
     83 H                     0.220169
     84 H                     0.220036
     85 C                    -0.774480
     86 H                     0.253455
     87 H                     0.248713
     88 H                     0.248778
     89 C                    -0.773281
     90 H                     0.251117
     91 H                     0.248715
     92 H                     0.249070
  ----------------------------------------
  Sum of atomic charges =     0.000000

                    Cartesian Multipole Moments
 -----------------------------------------------------------------
    Charge (ESU x 10^10)
                -0.0000
    Dipole Moment (Debye)
         X      -0.0027      Y      -0.2371      Z      -0.0558
       Tot       0.2435
    Quadrupole Moments (Debye-Ang)
        XX    -252.4394     XY      19.0469     YY    -311.5959
        XZ      -2.3059     YZ       9.0387     ZZ    -245.0675

 Total job time:  27669.59s(wall), 63009.91s(cpu)
        *  Thank you very much for using Q-Chem.  Have a nice day.  *
