 Q-Chem 5.0, Q-Chem, Inc., Pleasanton, CA (2017)
 Q-Chem 5.0.1 for Intel X86 EM64T Linux

User input:
--------------------------------------------------------------
$rem
threads 4
jobtype	opt
method PBEh-3c
basis def2-mSVP
mem_static	1024
mem_total	4000
sym_ignore	true
scf_convergence	9
solvent_method	pcm
$end

$molecule
read gsopt.mol
$end

$solvent
dielectric	4.33
$end

$pcm
theory iefpcm
$end
--------------------------------------------------------------

   17   -2123.8186829952      3.33E-10 Convergence criterion met
 Total energy in the final basis set = -2123.81868300
   15   -2123.8206877839      5.35E-10 Convergence criterion met
 Total energy in the final basis set = -2123.82068778
   15   -2123.8213076615      4.82E-10 Convergence criterion met
 Total energy in the final basis set = -2123.82130766
   15   -2123.8213192995      4.60E-10 Convergence criterion met
 Total energy in the final basis set = -2123.82131930
   14   -2123.8213341589      9.59E-10 Convergence criterion met
 Total energy in the final basis set = -2123.82133416
   14   -2123.8214051678      8.02E-10 Convergence criterion met
 Total energy in the final basis set = -2123.82140517
   14   -2123.8214422815      7.56E-10 Convergence criterion met
 Total energy in the final basis set = -2123.82144228
   14   -2123.8214561652      7.52E-10 Convergence criterion met
 Total energy in the final basis set = -2123.82145617
   14   -2123.8214428053      7.58E-10 Convergence criterion met
 Total energy in the final basis set = -2123.82144281
   14   -2123.8214289141      7.55E-10 Convergence criterion met
 Total energy in the final basis set = -2123.82142891
   14   -2123.8214255147      7.58E-10 Convergence criterion met
 Total energy in the final basis set = -2123.82142551

             Standard Nuclear Orientation (Angstroms)
    I     Atom           X                Y                Z
 ----------------------------------------------------------------
    1      C       0.0187825302     0.4691787317     0.0844449987
    2      C       0.0135750625     0.3440345306     1.4792860841
    3      H       0.9518055210     0.2374342694     2.0128355335
    4      C      -1.1873046241     0.3507100623     2.1718496693
    5      C      -2.4018198903     0.4850042926     1.4633355526
    6      C      -2.4091907866     0.6023887458     0.0863373391
    7      H      -3.3483400785     0.6935243601    -0.4489396931
    8      C      -1.2052961517     0.5961158024    -0.6178640016
    9      C      -3.5049742201     0.4533707298     2.4167537425
   10      C      -4.8697600039     0.5348660574     2.3178839331
   11      H      -5.3691997076     0.6579339810     1.3645026089
   12      C      -2.9203254205     0.2939663661     3.6846362622
   13      C      -3.6479748353     0.2065184414     4.8659442767
   14      C      -1.5158885154     0.2257048945     3.5959762605
   15      C      -0.8044941136     0.0612771159     4.7548115681
   16      H       0.2764119076    -0.0021562246     4.7590626810
   17      C      -5.6356902242     0.4528517388     3.5043703440
   18      H      -6.7136289189     0.5168686515     3.4302053538
   19      C      -5.0571875485     0.2929617526     4.7429869393
   20      H      -5.6825657689     0.2324762697     5.6253122228
   21      C      -1.5150436511    -0.0303035410     5.9772224080
   22      H      -0.9501021802    -0.1608577964     6.8908038746
   23      C      -2.8877787715     0.0381300072     6.0476066610
   24      H      -3.3847301952    -0.0384754986     7.0068767426
   25      B       1.3614253171     0.4514279813    -0.7048672367
   26      B      -1.2215292610     0.7111940009    -2.1684101899
   27      C       0.1255121853     0.7358676509    -2.9426981419
   28      C       0.1197204006     0.8581780506    -4.3322050025
   29      H      -0.8206696288     0.9497578123    -4.8644960612
   30      C       1.3122123290     0.8495593338    -5.0289608914
   31      C       2.5439694596     0.7211939410    -4.3498802780
   32      C       2.5579526299     0.6040548451    -2.9699428476
   33      H       3.4985802470     0.4987492374    -2.4407566934
   34      C       1.3548555229     0.6091098024    -2.2538207833
   35      C       3.6118159470     0.7162985012    -5.3568808832
   36      C       4.9777471438     0.6054800930    -5.3392040028
   37      H       5.5323440408     0.5018427364    -4.4149706586
   38      C       2.9718867575     0.8405064075    -6.6060291134
   39      C       3.6266573272     0.8557733525    -7.8338687136
   40      C       1.5754050257     0.9276260305    -6.4637247734
   41      C       0.7988393363     1.0388402514    -7.5888848873
   42      H      -0.2810791903     1.1063009580    -7.5365465432
   43      C       5.6747576906     0.6223736835    -6.5727827294
   44      H       6.7531230261     0.5338202791    -6.5547152942
   45      C       5.0365707177     0.7418408756    -7.7859941889
   46      H       5.6132361432     0.7453959903    -8.7029927889
   47      C       1.4393725060     1.0610127916    -8.8508000699
   48      H       0.8283203903     1.1478453155    -9.7399959556
   49      C       2.8061596927     0.9724023982    -8.9834135775
   50      H       3.2544499138     0.9890466130    -9.9694454680
   51      C      -2.5784412056     0.7726909158    -2.9607070462
   52      C      -3.1786086492    -0.4031961174    -3.4160934270
   53      C      -4.3663108249    -0.3605894087    -4.1446851710
   54      H      -4.8006476984    -1.2930606164    -4.4825731370
   55      C      -4.9693789944     0.8583025276    -4.4270903027
   56      O      -6.1178074119     0.9976596029    -5.1222721828
   57      C      -4.3756476623     2.0354364314    -3.9770755340
   58      H      -4.8499220476     2.9841832405    -4.2009739394
   59      C      -3.1946233196     1.9986474049    -3.2530799260
   60      C      -6.7588561915    -0.1616831630    -5.6013383966
   61      H      -7.6558496353     0.1708098425    -6.1191877289
   62      H      -6.1345017646    -0.7172081378    -6.3075121748
   63      H      -7.0529990206    -0.8355038594    -4.7912524274
   64      C      -2.5379782735    -1.7336582455    -3.1310709057
   65      H      -3.1378673904    -2.5621741789    -3.5069773885
   66      H      -1.5514016991    -1.8068238798    -3.5947403239
   67      H      -2.3989846755    -1.8891666945    -2.0589493926
   68      C      -2.5640151741     3.2787653445    -2.7825187244
   69      H      -3.1521712999     4.1503662826    -3.0675485722
   70      H      -1.5635121575     3.4051125690    -3.2027203160
   71      H      -2.4581494260     3.2928133173    -1.6955673014
   72      C       2.7202381194     0.2597373254     0.0487112621
   73      C       3.4316883563     1.3607086262     0.5237121457
   74      C       4.6483441780     1.1871679768     1.1821939214
   75      H       5.1752018922     2.0628310564     1.5396017078
   76      C       5.1625261077    -0.0904499435     1.3692718405
   77      O       6.3287542741    -0.3566352669     1.9946041140
   78      C       4.4550643150    -1.1932417364     0.8941339397
   79      H       4.8627343093    -2.1865209742     1.0442948567
   80      C       3.2454465108    -1.0262607192     0.2393589029
   81      C       7.0749980094     0.7207538070     2.5086003427
   82      H       7.9622109503     0.2924953242     2.9698560586
   83      H       6.5219050335     1.2800922016     3.2691343633
   84      H       7.3902330583     1.4160990084     1.7250158901
   85      C       2.4922152466    -2.2216841167    -0.2758463138
   86      H       2.9963461652    -3.1561843262    -0.0317974246
   87      H       2.3798307314    -2.1819374410    -1.3619897559
   88      H       1.4854111468    -2.2709477699     0.1457381267
   89      C       2.8830416480     2.7452266933     0.3143665529
   90      H       3.5245753382     3.5091941799     0.7523917220
   91      H       2.7789292871     2.9735434809    -0.7490555310
   92      H       1.8915290100     2.8534654226     0.7603197083
 ----------------------------------------------------------------

   14   -2123.8214262757      7.73E-10 Convergence criterion met
 Total energy in the final basis set = -2123.82142628
 Final energy is   -2123.82142627572
 **  OPTIMIZATION CONVERGED  **

                    Orbital Energies (a.u.)
 --------------------------------------------------------------

 Alpha MOs
 -- Occupied --
-19.526 -19.526 -10.503 -10.503 -10.483 -10.483 -10.465 -10.465
-10.465 -10.465 -10.464 -10.464 -10.463 -10.463 -10.463 -10.463
-10.462 -10.462 -10.461 -10.461 -10.461 -10.460 -10.460 -10.460
-10.458 -10.458 -10.458 -10.458 -10.456 -10.455 -10.454 -10.454
-10.454 -10.453 -10.453 -10.453 -10.447 -10.447 -10.435 -10.435
-10.434 -10.434 -10.434 -10.433 -10.431 -10.431 -10.426 -10.426
-10.426 -10.426 -10.417 -10.415  -6.949  -6.949  -1.181  -1.181
 -1.017  -1.016  -0.963  -0.960  -0.955  -0.954  -0.933  -0.932
 -0.909  -0.901  -0.872  -0.872  -0.861  -0.854  -0.854  -0.849
 -0.846  -0.846  -0.822  -0.813  -0.812  -0.805  -0.788  -0.788
 -0.767  -0.766  -0.756  -0.755  -0.734  -0.727  -0.726  -0.720
 -0.688  -0.683  -0.679  -0.665  -0.661  -0.650  -0.647  -0.646
 -0.644  -0.643  -0.594  -0.593  -0.590  -0.587  -0.583  -0.583
 -0.582  -0.574  -0.573  -0.559  -0.559  -0.544  -0.543  -0.536
 -0.532  -0.532  -0.527  -0.522  -0.513  -0.507  -0.502  -0.497
 -0.495  -0.490  -0.489  -0.488  -0.486  -0.485  -0.484  -0.481
 -0.478  -0.477  -0.473  -0.472  -0.470  -0.466  -0.465  -0.465
 -0.463  -0.458  -0.458  -0.453  -0.444  -0.441  -0.441  -0.439
 -0.435  -0.426  -0.425  -0.425  -0.421  -0.419  -0.418  -0.411
 -0.401  -0.400  -0.397  -0.395  -0.395  -0.393  -0.391  -0.390
 -0.380  -0.377  -0.374  -0.368  -0.363  -0.359  -0.356  -0.353
 -0.342  -0.340  -0.320  -0.315  -0.296  -0.295  -0.282  -0.278
 -0.278  -0.263  -0.258  -0.256  -0.252  -0.249

          Ground-State Mulliken Net Atomic Charges

     Atom                 Charge (a.u.)
  ----------------------------------------
      1 C                    -0.156337
      2 C                    -0.398301
      3 H                     0.244707
      4 C                     0.099915
      5 C                     0.072695
      6 C                    -0.388471
      7 H                     0.244808
      8 C                    -0.155507
      9 C                     0.180798
     10 C                    -0.386356
     11 H                     0.246006
     12 C                    -0.063927
     13 C                     0.230141
     14 C                     0.182375
     15 C                    -0.396099
     16 H                     0.245911
     17 C                    -0.228592
     18 H                     0.251213
     19 C                    -0.344334
     20 H                     0.246888
     21 C                    -0.225735
     22 H                     0.250624
     23 C                    -0.348874
     24 H                     0.247244
     25 B                     0.698555
     26 B                     0.697248
     27 C                    -0.154393
     28 C                    -0.387632
     29 H                     0.246024
     30 C                     0.073686
     31 C                     0.096569
     32 C                    -0.396978
     33 H                     0.245481
     34 C                    -0.156540
     35 C                     0.183942
     36 C                    -0.394973
     37 H                     0.246069
     38 C                    -0.065712
     39 C                     0.227094
     40 C                     0.182188
     41 C                    -0.387140
     42 H                     0.245979
     43 C                    -0.226060
     44 H                     0.250607
     45 C                    -0.347538
     46 H                     0.247224
     47 C                    -0.228454
     48 H                     0.251159
     49 C                    -0.343284
     50 H                     0.246882
     51 C                    -0.222442
     52 C                     0.051671
     53 C                    -0.453213
     54 H                     0.247406
     55 C                     0.393751
     56 O                    -0.467801
     57 C                    -0.402357
     58 H                     0.236177
     59 C                     0.056984
     60 C                    -0.424122
     61 H                     0.251099
     62 H                     0.216847
     63 H                     0.217048
     64 C                    -0.771568
     65 H                     0.247016
     66 H                     0.249158
     67 H                     0.249359
     68 C                    -0.768899
     69 H                     0.248851
     70 H                     0.247430
     71 H                     0.247331
     72 C                    -0.217618
     73 C                     0.057388
     74 C                    -0.452639
     75 H                     0.247399
     76 C                     0.393467
     77 O                    -0.467411
     78 C                    -0.406668
     79 H                     0.236050
     80 C                     0.052016
     81 C                    -0.424103
     82 H                     0.250930
     83 H                     0.216651
     84 H                     0.216441
     85 C                    -0.772329
     86 H                     0.249760
     87 H                     0.248475
     88 H                     0.248499
     89 C                    -0.771060
     90 H                     0.246443
     91 H                     0.248702
     92 H                     0.249085
  ----------------------------------------
  Sum of atomic charges =     0.000000

                    Cartesian Multipole Moments
 -----------------------------------------------------------------
    Charge (ESU x 10^10)
                -0.0000
    Dipole Moment (Debye)
         X      -0.0149      Y      -0.2433      Z      -0.0492
       Tot       0.2486
    Quadrupole Moments (Debye-Ang)
        XX    -255.6839     XY      18.0160     YY    -311.9859
        XZ      -1.6844     YZ       8.5682     ZZ    -249.4078

 Total job time:  24293.93s(wall), 56682.43s(cpu)
        *  Thank you very much for using Q-Chem.  Have a nice day.  *
