                         Program Version 4.0.1 -  RELEASE  -
|  1> %maxcore 1700
|  2> %pal nprocs 4 end
|  3> !PBEh-3c RIJCOSX
|  4>
|  5> *xyzfile 0 1 gsopt.xyz
|  6>
|  7>
|  8>                          ****END OF INPUT****

CARTESIAN COORDINATES (ANGSTROEM)
---------------------------------
  C      2.482176   -1.573380    0.401822
  C      3.451074   -1.267767   -0.583887
  B      4.473997   -2.355906   -1.019403
  C      4.513655   -3.722038   -0.277870
  C      3.529556   -4.032791    0.688749
  B      2.450975   -2.980332    1.065956
  C      5.457438   -4.685639   -0.642516
  C      5.411341   -5.944880   -0.074420
  C      4.405951   -6.265508    0.864314
  C      3.483239   -5.311463    1.249749
  C      1.485989   -0.643939    0.706181
  C      1.447925    0.568616    0.043226
  C      2.427708    0.886527   -0.922602
  C      3.416420   -0.030784   -1.233441
  C      7.249481   -7.477827   -1.144068
  C      7.713040   -8.814820   -1.152617
  C      7.139280   -9.799808   -0.384145
  C      6.044815   -9.493410    0.459142
  C      5.626496   -8.166832    0.462586
  C      6.199117   -7.153162   -0.326987
  C      5.302201  -10.385391    1.269519
  C      4.228393   -9.925529    1.994377
  C      3.821776   -8.570211    1.971629
  C      4.530471   -7.685250    1.201868
  C      1.902955    4.153918   -2.855732
  C      2.596749    2.971833   -2.502552
  C      2.080242    2.182658   -1.509666
  C      0.882868    2.586343   -0.889221
  C      0.162661    3.724110   -1.233840
  C      0.723449    4.527430   -2.255608
  C      0.457030    1.642125    0.062366
  C     -0.735620    1.845407    0.703971
  C     -1.484860    3.001682    0.383536
  C     -1.062487    3.917378   -0.551250
  C      7.440922   -1.355647   -3.295146
  C      6.637295   -1.529943   -2.169238
  C      5.388557   -2.139079   -2.275161
  C      4.954118   -2.582378   -3.534600
  C      5.754728   -2.402323   -4.648749
  C      6.999268   -1.788477   -4.538257
  C      7.121350   -1.062801   -0.824775
  C      3.620740   -3.264107   -3.674014
  O      7.697904   -1.659120   -5.686236
  C      8.956692   -1.044877   -5.639549
  C      0.445677   -3.480358    4.326169
  C      1.459627   -3.143499    3.445653
  C      1.304683   -3.359039    2.069354
  C      0.114715   -3.921806    1.605893
  C     -0.903069   -4.257056    2.496706
  C     -0.741689   -4.035949    3.858013
  C      2.739457   -2.546085    3.958868
  C     -0.075045   -4.176242    0.135493
  O     -1.673123   -4.324900    4.791652
  C     -2.900817   -4.855159    4.371236
  H      6.198219   -4.452532   -1.399529
  H      2.702732   -5.555582    1.962416
  H      0.721794   -0.898997    1.432505
  H      4.142570    0.183380   -2.010102
  H      7.720644   -6.746052   -1.788058
  H      8.542053   -9.070142   -1.799635
  H      7.517071  -10.813760   -0.435190
  H      5.570677  -11.434094    1.309228
  H      3.665312  -10.623768    2.599970
  H      2.958095   -8.263830    2.548561
  H      2.311087    4.775492   -3.641905
  H      3.504440    2.706703   -3.030030
  H      0.217924    5.430392   -2.575192
  H     -1.121434    1.141521    1.431066
  H     -2.429570    3.161848    0.886555
  H     -1.676661    4.781183   -0.774300
  H      8.405156   -0.877977   -3.177604
  H      5.421346   -2.736899   -5.624135
  H      8.113291   -0.615167   -0.879856
  H      7.175140   -1.889736   -0.112981
  H      6.448598   -0.316978   -0.395536
  H      3.382547   -3.474469   -4.716181
  H      2.810915   -2.652660   -3.269768
  H      3.603485   -4.214076   -3.135109
  H      9.338767   -1.040207   -6.658400
  H      9.664028   -1.591341   -5.006887
  H      8.902129   -0.010343   -5.285023
  H      0.562181   -3.311816    5.390042
  H     -1.814500   -4.688784    2.102765
  H      3.592669   -3.192834    3.741840
  H      2.712056   -2.388382    5.036353
  H      2.942955   -1.580985    3.489522
  H      0.661758   -4.887704   -0.244356
  H      0.035594   -3.259611   -0.447931
  H     -1.062481   -4.582861   -0.082259
  H     -3.501942   -4.997152    5.267040
  H     -3.437594   -4.179458    3.696986
  H     -2.788776   -5.823798    3.872777

 Total Charge           Charge          ....    0
 Multiplicity           Mult            ....    1
 Number of Electrons    NEL             ....  364
 Basis Dimension        Dim             ....  886

ORBITAL ENERGIES
----------------

  NO   OCC          E(Eh)            E(eV)
   0   2.0000     -19.522139      -531.2244
   1   2.0000     -19.522067      -531.2225
   2   2.0000     -10.498540      -285.6798
   3   2.0000     -10.498434      -285.6769
   4   2.0000     -10.488422      -285.4045
   5   2.0000     -10.488351      -285.4025
   6   2.0000     -10.462614      -284.7022
   7   2.0000     -10.462481      -284.6986
   8   2.0000     -10.462416      -284.6968
   9   2.0000     -10.462292      -284.6934
  10   2.0000     -10.462202      -284.6910
  11   2.0000     -10.462183      -284.6905
  12   2.0000     -10.460286      -284.6389
  13   2.0000     -10.460252      -284.6379
  14   2.0000     -10.460131      -284.6346
  15   2.0000     -10.460044      -284.6323
  16   2.0000     -10.459922      -284.6289
  17   2.0000     -10.459900      -284.6284
  18   2.0000     -10.459371      -284.6139
  19   2.0000     -10.459127      -284.6073
  20   2.0000     -10.458876      -284.6005
  21   2.0000     -10.458470      -284.5894
  22   2.0000     -10.458399      -284.5875
  23   2.0000     -10.457898      -284.5739
  24   2.0000     -10.457811      -284.5715
  25   2.0000     -10.457765      -284.5703
  26   2.0000     -10.457610      -284.5660
  27   2.0000     -10.457534      -284.5640
  28   2.0000     -10.450683      -284.3775
  29   2.0000     -10.450178      -284.3638
  30   2.0000     -10.450105      -284.3618
  31   2.0000     -10.449702      -284.3509
  32   2.0000     -10.449626      -284.3488
  33   2.0000     -10.449444      -284.3438
  34   2.0000     -10.448566      -284.3199
  35   2.0000     -10.448540      -284.3192
  36   2.0000     -10.444093      -284.1982
  37   2.0000     -10.444011      -284.1960
  38   2.0000     -10.431492      -283.8553
  39   2.0000     -10.431192      -283.8472
  40   2.0000     -10.430209      -283.8204
  41   2.0000     -10.429547      -283.8024
  42   2.0000     -10.429518      -283.8016
  43   2.0000     -10.428928      -283.7855
  44   2.0000     -10.426983      -283.7326
  45   2.0000     -10.426400      -283.7168
  46   2.0000     -10.425971      -283.7051
  47   2.0000     -10.425756      -283.6992
  48   2.0000     -10.423884      -283.6483
  49   2.0000     -10.422849      -283.6201
  50   2.0000     -10.411278      -283.3053
  51   2.0000     -10.411240      -283.3043
  52   2.0000      -6.944271      -188.9632
  53   2.0000      -6.943950      -188.9545
  54   2.0000      -1.179735       -32.1022
  55   2.0000      -1.179685       -32.1008
  56   2.0000      -1.013402       -27.5761
  57   2.0000      -1.012968       -27.5643
  58   2.0000      -0.959839       -26.1185
  59   2.0000      -0.956413       -26.0253
  60   2.0000      -0.950655       -25.8686
  61   2.0000      -0.949649       -25.8413
  62   2.0000      -0.931153       -25.3380
  63   2.0000      -0.930826       -25.3291
  64   2.0000      -0.905938       -24.6518
  65   2.0000      -0.897700       -24.4276
  66   2.0000      -0.868961       -23.6456
  67   2.0000      -0.868825       -23.6419
  68   2.0000      -0.857634       -23.3374
  69   2.0000      -0.851194       -23.1622
  70   2.0000      -0.850940       -23.1552
  71   2.0000      -0.846513       -23.0348
  72   2.0000      -0.844637       -22.9837
  73   2.0000      -0.844209       -22.9721
  74   2.0000      -0.818570       -22.2744
  75   2.0000      -0.811235       -22.0748
  76   2.0000      -0.809595       -22.0302
  77   2.0000      -0.801659       -21.8142
  78   2.0000      -0.788640       -21.4600
  79   2.0000      -0.788149       -21.4466
  80   2.0000      -0.763890       -20.7865
  81   2.0000      -0.763328       -20.7712
  82   2.0000      -0.754097       -20.5200
  83   2.0000      -0.753356       -20.4999
  84   2.0000      -0.731836       -19.9143
  85   2.0000      -0.725531       -19.7427
  86   2.0000      -0.724236       -19.7075
  87   2.0000      -0.717722       -19.5302
  88   2.0000      -0.686740       -18.6871
  89   2.0000      -0.680231       -18.5100
  90   2.0000      -0.676987       -18.4217
  91   2.0000      -0.662294       -18.0219
  92   2.0000      -0.659103       -17.9351
  93   2.0000      -0.647645       -17.6233
  94   2.0000      -0.644610       -17.5407
  95   2.0000      -0.643994       -17.5240
  96   2.0000      -0.641139       -17.4463
  97   2.0000      -0.641081       -17.4447
  98   2.0000      -0.592535       -16.1237
  99   2.0000      -0.590241       -16.0613
 100   2.0000      -0.590133       -16.0583
 101   2.0000      -0.586283       -15.9536
 102   2.0000      -0.582373       -15.8472
 103   2.0000      -0.582213       -15.8428
 104   2.0000      -0.581284       -15.8175
 105   2.0000      -0.572794       -15.5865
 106   2.0000      -0.571873       -15.5615
 107   2.0000      -0.556867       -15.1531
 108   2.0000      -0.556516       -15.1436
 109   2.0000      -0.541321       -14.7301
 110   2.0000      -0.541088       -14.7238
 111   2.0000      -0.533854       -14.5269
 112   2.0000      -0.532970       -14.5028
 113   2.0000      -0.532835       -14.4992
 114   2.0000      -0.525726       -14.3057
 115   2.0000      -0.521365       -14.1871
 116   2.0000      -0.509962       -13.8768
 117   2.0000      -0.504589       -13.7306
 118   2.0000      -0.499882       -13.6025
 119   2.0000      -0.494367       -13.4524
 120   2.0000      -0.492780       -13.4092
 121   2.0000      -0.488880       -13.3031
 122   2.0000      -0.488009       -13.2794
 123   2.0000      -0.487087       -13.2543
 124   2.0000      -0.483523       -13.1573
 125   2.0000      -0.481180       -13.0936
 126   2.0000      -0.480943       -13.0871
 127   2.0000      -0.479459       -13.0467
 128   2.0000      -0.477472       -12.9927
 129   2.0000      -0.474362       -12.9081
 130   2.0000      -0.471374       -12.8267
 131   2.0000      -0.470330       -12.7983
 132   2.0000      -0.468464       -12.7476
 133   2.0000      -0.465586       -12.6692
 134   2.0000      -0.463061       -12.6005
 135   2.0000      -0.462482       -12.5848
 136   2.0000      -0.461522       -12.5587
 137   2.0000      -0.455196       -12.3865
 138   2.0000      -0.455047       -12.3824
 139   2.0000      -0.451967       -12.2987
 140   2.0000      -0.442028       -12.0282
 141   2.0000      -0.440207       -11.9786
 142   2.0000      -0.439538       -11.9604
 143   2.0000      -0.438838       -11.9414
 144   2.0000      -0.431001       -11.7281
 145   2.0000      -0.423872       -11.5341
 146   2.0000      -0.423607       -11.5269
 147   2.0000      -0.420245       -11.4354
 148   2.0000      -0.418317       -11.3830
 149   2.0000      -0.416712       -11.3393
 150   2.0000      -0.416666       -11.3381
 151   2.0000      -0.408907       -11.1269
 152   2.0000      -0.398816       -10.8523
 153   2.0000      -0.398480       -10.8432
 154   2.0000      -0.396452       -10.7880
 155   2.0000      -0.392359       -10.6766
 156   2.0000      -0.392081       -10.6691
 157   2.0000      -0.391988       -10.6665
 158   2.0000      -0.389718       -10.6048
 159   2.0000      -0.388195       -10.5633
 160   2.0000      -0.375874       -10.2281
 161   2.0000      -0.373502       -10.1635
 162   2.0000      -0.371424       -10.1070
 163   2.0000      -0.363794        -9.8993
 164   2.0000      -0.360101        -9.7989
 165   2.0000      -0.354963        -9.6590
 166   2.0000      -0.352408        -9.5895
 167   2.0000      -0.348481        -9.4827
 168   2.0000      -0.337440        -9.1822
 169   2.0000      -0.335469        -9.1286
 170   2.0000      -0.315500        -8.5852
 171   2.0000      -0.309992        -8.4353
 172   2.0000      -0.292858        -7.9691
 173   2.0000      -0.292048        -7.9470
 174   2.0000      -0.277230        -7.5438
 175   2.0000      -0.272784        -7.4228
 176   2.0000      -0.272665        -7.4196
 177   2.0000      -0.259210        -7.0535
 178   2.0000      -0.253324        -6.8933
 179   2.0000      -0.253070        -6.8864
 180   2.0000      -0.246678        -6.7125
 181   2.0000      -0.244217        -6.6455
 182   0.0000      -0.087561        -2.3827
 183   0.0000      -0.055808        -1.5186
 184   0.0000      -0.032692        -0.8896
 185   0.0000      -0.026071        -0.7094
 186   0.0000      -0.001492        -0.0406

MULLIKEN ATOMIC CHARGES
-----------------------
   0 C :   -0.156351
   1 C :   -0.152357
   2 B :    0.696361
   3 C :   -0.154527
   4 C :   -0.155562
   5 B :    0.700645
   6 C :   -0.386257
   7 C :    0.097511
   8 C :    0.094857
   9 C :   -0.387993
  10 C :   -0.384223
  11 C :    0.093572
  12 C :    0.100811
  13 C :   -0.389434
  14 C :   -0.381645
  15 C :   -0.203353
  16 C :   -0.334001
  17 C :    0.249120
  18 C :   -0.059865
  19 C :    0.194787
  20 C :   -0.333186
  21 C :   -0.203613
  22 C :   -0.381046
  23 C :    0.194527
  24 C :   -0.202986
  25 C :   -0.381109
  26 C :    0.190997
  27 C :   -0.058693
  28 C :    0.249564
  29 C :   -0.333995
  30 C :    0.191886
  31 C :   -0.377510
  32 C :   -0.204801
  33 C :   -0.332662
  34 C :   -0.429247
  35 C :    0.073901
  36 C :   -0.219456
  37 C :    0.057065
  38 C :   -0.386118
  39 C :    0.403896
  40 C :   -0.756455
  41 C :   -0.760702
  42 O :   -0.454445
  43 C :   -0.405116
  44 C :   -0.381018
  45 C :    0.073268
  46 C :   -0.224429
  47 C :    0.059678
  48 C :   -0.438305
  49 C :    0.403930
  50 C :   -0.761037
  51 C :   -0.760033
  52 O :   -0.454637
  53 C :   -0.405944
  54 H :    0.234289
  55 H :    0.234950
  56 H :    0.234828
  57 H :    0.232407
  58 H :    0.220548
  59 H :    0.225403
  60 H :    0.218975
  61 H :    0.219143
  62 H :    0.225562
  63 H :    0.220554
  64 H :    0.225259
  65 H :    0.220241
  66 H :    0.219170
  67 H :    0.220342
  68 H :    0.225640
  69 H :    0.219045
  70 H :    0.219459
  71 H :    0.221039
  72 H :    0.231724
  73 H :    0.243080
  74 H :    0.244447
  75 H :    0.237380
  76 H :    0.244874
  77 H :    0.246494
  78 H :    0.238765
  79 H :    0.202658
  80 H :    0.202979
  81 H :    0.220409
  82 H :    0.220986
  83 H :    0.244235
  84 H :    0.236854
  85 H :    0.244487
  86 H :    0.245287
  87 H :    0.246530
  88 H :    0.232369
  89 H :    0.239131
  90 H :    0.203399
  91 H :    0.202795
Sum of atomic charges:    0.0000000

LOEWDIN ATOMIC CHARGES
----------------------
   0 C :   -0.087310
   1 C :   -0.087346
   2 B :    0.086210
   3 C :   -0.085823
   4 C :   -0.087055
   5 B :    0.085811
   6 C :   -0.083974
   7 C :   -0.014889
   8 C :   -0.015439
   9 C :   -0.083873
  10 C :   -0.083798
  11 C :   -0.015237
  12 C :   -0.015073
  13 C :   -0.083559
  14 C :   -0.107135
  15 C :   -0.130696
  16 C :   -0.112123
  17 C :   -0.036883
  18 C :   -0.020032
  19 C :   -0.022568
  20 C :   -0.112316
  21 C :   -0.130786
  22 C :   -0.107405
  23 C :   -0.022330
  24 C :   -0.130735
  25 C :   -0.107015
  26 C :   -0.022393
  27 C :   -0.020010
  28 C :   -0.036989
  29 C :   -0.111855
  30 C :   -0.022589
  31 C :   -0.107018
  32 C :   -0.130670
  33 C :   -0.112118
  34 C :   -0.205406
  35 C :   -0.030289
  36 C :   -0.130362
  37 C :   -0.023002
  38 C :   -0.169280
  39 C :    0.067550
  40 C :   -0.343983
  41 C :   -0.343862
  42 O :   -0.171612
  43 C :   -0.183085
  44 C :   -0.170491
  45 C :   -0.027276
  46 C :   -0.131532
  47 C :   -0.025677
  48 C :   -0.204979
  49 C :    0.067608
  50 C :   -0.343845
  51 C :   -0.344704
  52 O :   -0.171768
  53 C :   -0.183209
  54 H :    0.150842
  55 H :    0.151091
  56 H :    0.151074
  57 H :    0.150103
  58 H :    0.142694
  59 H :    0.139152
  60 H :    0.139515
  61 H :    0.139549
  62 H :    0.139162
  63 H :    0.142734
  64 H :    0.139162
  65 H :    0.142648
  66 H :    0.139508
  67 H :    0.142848
  68 H :    0.139196
  69 H :    0.139442
  70 H :    0.135859
  71 H :    0.141814
  72 H :    0.131178
  73 H :    0.144842
  74 H :    0.145202
  75 H :    0.133464
  76 H :    0.145496
  77 H :    0.146635
  78 H :    0.129376
  79 H :    0.111433
  80 H :    0.111630
  81 H :    0.141764
  82 H :    0.136118
  83 H :    0.145677
  84 H :    0.133586
  85 H :    0.145726
  86 H :    0.145814
  87 H :    0.146124
  88 H :    0.131057
  89 H :    0.129439
  90 H :    0.111892
  91 H :    0.111385

  Mayer bond orders larger than 0.1
B(  0-C ,  1-C ) :   1.3398 B(  0-C ,  5-B ) :   0.9147 B(  0-C , 10-C ) :   1.4073
B(  1-C ,  2-B ) :   0.9162 B(  1-C , 13-C ) :   1.4065 B(  2-B ,  3-C ) :   0.9136
B(  2-B , 36-C ) :   0.8287 B(  3-C ,  4-C ) :   1.3415 B(  3-C ,  6-C ) :   1.4035
B(  4-C ,  5-B ) :   0.9156 B(  4-C ,  9-C ) :   1.4054 B(  5-B , 46-C ) :   0.8246
B(  6-C ,  7-C ) :   1.3328 B(  6-C , 54-H ) :   0.9180 B(  7-C ,  8-C ) :   1.3449
B(  7-C , 19-C ) :   0.9719 B(  8-C ,  9-C ) :   1.3297 B(  8-C , 23-C ) :   0.9729
B(  9-C , 55-H ) :   0.9182 B( 10-C , 11-C ) :   1.3284 B( 10-C , 56-H ) :   0.9178
B( 11-C , 12-C ) :   1.3448 B( 11-C , 30-C ) :   0.9787 B( 12-C , 13-C ) :   1.3284
B( 12-C , 26-C ) :   0.9718 B( 13-C , 57-H ) :   0.9194 B( 14-C , 15-C ) :   1.3104
B( 14-C , 19-C ) :   1.4029 B( 14-C , 58-H ) :   0.9305 B( 15-C , 16-C ) :   1.5467
B( 15-C , 59-H ) :   0.9187 B( 16-C , 17-C ) :   1.1878 B( 16-C , 60-H ) :   0.9268
B( 17-C , 18-C ) :   1.2319 B( 17-C , 20-C ) :   1.1884 B( 18-C , 19-C ) :   1.2230
B( 18-C , 23-C ) :   1.2226 B( 20-C , 21-C ) :   1.5466 B( 20-C , 61-H ) :   0.9266
B( 21-C , 22-C ) :   1.3100 B( 21-C , 62-H ) :   0.9186 B( 22-C , 23-C ) :   1.4038
B( 22-C , 63-H ) :   0.9304 B( 24-C , 25-C ) :   1.3099 B( 24-C , 29-C ) :   1.5478
B( 24-C , 64-H ) :   0.9186 B( 25-C , 26-C ) :   1.4048 B( 25-C , 65-H ) :   0.9305
B( 26-C , 27-C ) :   1.2224 B( 27-C , 28-C ) :   1.2329 B( 27-C , 30-C ) :   1.2230
B( 28-C , 29-C ) :   1.1867 B( 28-C , 33-C ) :   1.1874 B( 29-C , 66-H ) :   0.9268
B( 30-C , 31-C ) :   1.4041 B( 31-C , 32-C ) :   1.3102 B( 31-C , 67-H ) :   0.9305
B( 32-C , 33-C ) :   1.5468 B( 32-C , 68-H ) :   0.9185 B( 33-C , 69-H ) :   0.9270
B( 34-C , 35-C ) :   1.4028 B( 34-C , 39-C ) :   1.3461 B( 34-C , 70-H ) :   0.9050
B( 35-C , 36-C ) :   1.4296 B( 35-C , 40-C ) :   0.9800 B( 36-C , 37-C ) :   1.3815
B( 37-C , 38-C ) :   1.4693 B( 37-C , 41-C ) :   0.9771 B( 38-C , 39-C ) :   1.3591
B( 38-C , 71-H ) :   0.9097 B( 39-C , 42-O ) :   1.0313 B( 40-C , 72-H ) :   0.9283
B( 40-C , 73-H ) :   0.9065 B( 40-C , 74-H ) :   0.9049 B( 41-C , 75-H ) :   0.9273
B( 41-C , 76-H ) :   0.9048 B( 41-C , 77-H ) :   0.9028 B( 42-O , 43-C ) :   0.9604
B( 43-C , 78-H ) :   0.9233 B( 43-C , 79-H ) :   0.9079 B( 43-C , 80-H ) :   0.9079
B( 44-C , 45-C ) :   1.4587 B( 44-C , 49-C ) :   1.3618 B( 44-C , 81-H ) :   0.9107
B( 45-C , 46-C ) :   1.3824 B( 45-C , 50-C ) :   0.9794 B( 46-C , 47-C ) :   1.4285
B( 47-C , 48-C ) :   1.4151 B( 47-C , 51-C ) :   0.9785 B( 48-C , 49-C ) :   1.3434
B( 48-C , 82-H ) :   0.9035 B( 49-C , 52-O ) :   1.0308 B( 50-C , 83-H ) :   0.9052
B( 50-C , 84-H ) :   0.9275 B( 50-C , 85-H ) :   0.9049 B( 51-C , 86-H ) :   0.9044
B( 51-C , 87-H ) :   0.9039 B( 51-C , 88-H ) :   0.9281 B( 52-O , 53-C ) :   0.9606
B( 53-C , 89-H ) :   0.9230 B( 53-C , 90-H ) :   0.9076 B( 53-C , 91-H ) :   0.9077

Dispersion correction           -0.083729883
FINAL SINGLE POINT ENERGY     -2123.799751818070

DIPOLE MOMENT
-------------
                                X             Y             Z
Electronic contribution:      2.00346       1.42335       3.21147
Nuclear contribution   :     -2.18755      -1.52338      -3.61242
                        -----------------------------------------
Total Dipole Moment    :     -0.18409      -0.10003      -0.40094
                        -----------------------------------------
Magnitude (a.u.)       :      0.45239
Magnitude (Debye)      :      1.14987

                             ****ORCA TERMINATED NORMALLY****
TOTAL RUN TIME: 0 days 0 hours 15 minutes 38 seconds 110 msec
