 Q-Chem 5.0, Q-Chem, Inc., Pleasanton, CA (2017)
 Q-Chem 5.0.1 for Intel X86 EM64T Linux

User input:
--------------------------------------------------------------
$rem
threads 8
jobtype	opt
method PBEh-3c
basis def2-mSVP
mem_static	1024
mem_total	14000
sym_ignore	true
cis_n_roots             2
cis_singlets            false
cis_triplets		true
rpa                     false
cis_state_deriv         1
$end

$molecule
read gsopt.mol
$end

--------------------------------------------------------------

   15   -2123.7985757453      6.20E-09 Convergence criterion met
 Total energy in the final basis set = -2123.79857575
   12   -2123.7961148469      9.54E-09 Convergence criterion met
 Total energy in the final basis set = -2123.79611485
   13   -2123.7950279716      4.88E-09 Convergence criterion met
 Total energy in the final basis set = -2123.79502797
   12   -2123.7942418071      6.59E-09 Convergence criterion met
 Total energy in the final basis set = -2123.79424181
   11   -2123.7945101145      8.58E-09 Convergence criterion met
 Total energy in the final basis set = -2123.79451011
   10   -2123.7947868866      8.38E-09 Convergence criterion met
 Total energy in the final basis set = -2123.79478689
    9   -2123.7948819060      8.91E-09 Convergence criterion met
 Total energy in the final basis set = -2123.79488191
   10   -2123.7949052033      4.89E-09 Convergence criterion met
 Total energy in the final basis set = -2123.79490520
   10   -2123.7948463999      4.73E-09 Convergence criterion met
 Total energy in the final basis set = -2123.79484640

             Standard Nuclear Orientation (Angstroms)
    I     Atom           X                Y                Z
 ----------------------------------------------------------------
    1      C       0.0464101222     0.4534593362     0.0691029219
    2      C       0.0349507307     0.3244370214     1.4698455460
    3      H       0.9772115411     0.2236300117     1.9971504344
    4      C      -1.1555529064     0.3213779590     2.1579168338
    5      C      -2.4073794319     0.4539419609     1.4299356918
    6      C      -2.4151928538     0.5737891342     0.0599511467
    7      H      -3.3525326990     0.6615926188    -0.4788533163
    8      C      -1.2142177732     0.5770146583    -0.6530160490
    9      C      -3.4885439034     0.4170956031     2.3800587348
   10      C      -4.8599969293     0.4950425048     2.2864261494
   11      H      -5.3602676365     0.6172801867     1.3341289433
   12      C      -2.8957070297     0.2592210482     3.6515459463
   13      C      -3.6215316925     0.1708014236     4.8342048757
   14      C      -1.4869512188     0.1959287151     3.5652717972
   15      C      -0.7735839283     0.0349626088     4.7284037305
   16      H       0.3070020683    -0.0240357599     4.7304256641
   17      C      -5.6147412777     0.4113897265     3.4716284841
   18      H      -6.6932935933     0.4722446617     3.4051006766
   19      C      -5.0304584542     0.2535782873     4.7105078864
   20      H      -5.6545899433     0.1924502401     5.5933498352
   21      C      -1.4838912175    -0.0571302321     5.9440293401
   22      H      -0.9218646632    -0.1846726984     6.8597775041
   23      C      -2.8583005890     0.0068116124     6.0134530508
   24      H      -3.3538843701    -0.0702627590     6.9731085017
   25      B       1.3788166065     0.4481250093    -0.6979067027
   26      B      -1.2417358514     0.7011584894    -2.1830434784
   27      C       0.0956549296     0.7176211264    -2.9363571860
   28      C       0.0993965318     0.8323800792    -4.3300541589
   29      H      -0.8427174272     0.9223866189    -4.8594392483
   30      C       1.2855730340     0.8169560483    -5.0224755109
   31      C       2.5491117440     0.6920095399    -4.3232995896
   32      C       2.5622034150     0.5882810374    -2.9532691319
   33      H       3.4996439572     0.4905672924    -2.4172579371
   34      C       1.3568648192     0.5945648316    -2.2279856638
   35      C       3.6025977710     0.6814698810    -5.3254633853
   36      C       4.9723304941     0.5741332689    -5.3077504051
   37      H       5.5250616270     0.4792166377    -4.3820659289
   38      C       2.9588179098     0.7948360075    -6.5775830755
   39      C       3.6152047320     0.8023259213    -7.8049597356
   40      C       1.5565569767     0.8826486116    -6.4403566391
   41      C       0.7813321949     0.9862076897    -7.5729078333
   42      H      -0.2980234546     1.0542434905    -7.5216261235
   43      C       5.6640764236     0.5833192797    -6.5383492928
   44      H       6.7426621462     0.4977009153    -6.5230650875
   45      C       5.0243731035     0.6919808137    -7.7529757543
   46      H       5.6019227807     0.6899626169    -8.6691260041
   47      C       1.4254810719     0.9991554882    -8.8263913021
   48      H       0.8197683161     1.0795407855    -9.7197503835
   49      C       2.7944399677     0.9101207430    -8.9544516119
   50      H       3.2434921822     0.9204311402    -9.9399821648
   51      C      -2.6026785677     0.7859691546    -2.9748912192
   52      C      -3.2170630578    -0.3748436431    -3.4496765160
   53      C      -4.4073350744    -0.3093112953    -4.1719918834
   54      H      -4.8508459172    -1.2321315901    -4.5241281058
   55      C      -5.0016512577     0.9179675815    -4.4296640763
   56      O      -6.1529988841     1.0798346927    -5.1172186732
   57      C      -4.3967147671     2.0806954452    -3.9621381416
   58      H      -4.8668137736     3.0348231634    -4.1689300823
   59      C      -3.2132174735     2.0206961843    -3.2451973470
   60      C      -6.8009411496    -0.0598760777    -5.6138304424
   61      H      -7.6973377975     0.2882175662    -6.1232592997
   62      H      -6.1851306022    -0.6096769030    -6.3335150570
   63      H      -7.1002845330    -0.7496113885    -4.8177052931
   64      C      -2.5911022352    -1.7177197767    -3.1915956317
   65      H      -3.1990347757    -2.5316620662    -3.5866774736
   66      H      -1.6037152350    -1.7919082038    -3.6525378718
   67      H      -2.4556718361    -1.8968999942    -2.1231339020
   68      C      -2.5732573611     3.2894929360    -2.7571446340
   69      H      -3.1547293727     4.1690074255    -3.0318742873
   70      H      -1.5709722449     3.4129047957    -3.1730037489
   71      H      -2.4674081626     3.2885624322    -1.6704449381
   72      C       2.7434167248     0.2765158907     0.0604681169
   73      C       3.4419835786     1.3859200454     0.5355913525
   74      C       4.6586651419     1.2301566633     1.1978489459
   75      H       5.1723988725     2.1138150471     1.5545369591
   76      C       5.1893483391    -0.0386224072     1.3898503016
   77      O       6.3578328016    -0.2890376200     2.0194979342
   78      C       4.4982934162    -1.1505300382     0.9162555995
   79      H       4.9217029550    -2.1358076376     1.0717490440
   80      C       3.2888197090    -1.0008661121     0.2588339360
   81      C       7.0836265378     0.7939043766     2.5330470011
   82      H       7.9753038700     0.3790837506     2.9988658563
   83      H       6.5222682727     1.3490442699     3.2921229937
   84      H       7.3949436135     1.4954428157     1.7519305189
   85      C       2.5565761749    -2.2110401059    -0.2518588315
   86      H       3.0776864599    -3.1354152457    -0.0042908458
   87      H       2.4419040225    -2.1773149117    -1.3376315048
   88      H       1.5507794245    -2.2761402712     0.1689949604
   89      C       2.8795877878     2.7644740628     0.3243267403
   90      H       3.5171270668     3.5358903099     0.7558230083
   91      H       2.7655214276     2.9875514766    -0.7388077782
   92      H       1.8895837803     2.8653526288     0.7744790212
 ----------------------------------------------------------------

    9   -2123.7948134390      5.69E-09 Convergence criterion met
 Total energy in the final basis set = -2123.79481344

         TDDFT/TDA Excitation Energies
 ---------------------------------------------------

 Excited state   1: excitation energy (eV) =    1.9917
 Total energy for state  1:                 -2123.72161954 au
    Multiplicity: Triplet
    Trans. Mom.:  0.0000 X   0.0000 Y   0.0000 Z
    Strength   :     0.0000000000
    D(175) --> V(  2) amplitude = -0.2573
    D(181) --> V(  1) amplitude =  0.9068

 Excited state   2: excitation energy (eV) =    2.3761
 Total energy for state  2:                 -2123.70749445 au
    Multiplicity: Triplet
    Trans. Mom.:  0.0000 X   0.0000 Y   0.0000 Z
    Strength   :     0.0000000000
    D(178) --> V(  2) amplitude =  0.4807
    D(179) --> V(  1) amplitude = -0.7929

 ---------------------------------------------------

 Final energy is   -2123.72161953793
 **  OPTIMIZATION CONVERGED  **

                    Orbital Energies (a.u.)
 --------------------------------------------------------------

 Alpha MOs
 -- Occupied --
-19.522 -19.521 -10.498 -10.497 -10.488 -10.487 -10.464 -10.464
-10.463 -10.463 -10.463 -10.463 -10.462 -10.462 -10.462 -10.461
-10.461 -10.461 -10.460 -10.460 -10.459 -10.459 -10.458 -10.458
-10.458 -10.458 -10.458 -10.457 -10.450 -10.450 -10.449 -10.449
-10.448 -10.448 -10.448 -10.447 -10.445 -10.445 -10.432 -10.431
-10.431 -10.430 -10.430 -10.430 -10.426 -10.425 -10.424 -10.424
-10.423 -10.422 -10.412 -10.410  -6.939  -6.938  -1.179  -1.179
 -1.012  -1.012  -0.957  -0.953  -0.950  -0.948  -0.932  -0.932
 -0.902  -0.894  -0.868  -0.868  -0.859  -0.854  -0.850  -0.847
 -0.846  -0.846  -0.814  -0.811  -0.810  -0.795  -0.788  -0.787
 -0.763  -0.762  -0.753  -0.752  -0.731  -0.729  -0.727  -0.716
 -0.687  -0.683  -0.676  -0.664  -0.657  -0.647  -0.641  -0.640
 -0.640  -0.639  -0.596  -0.592  -0.588  -0.588  -0.582  -0.581
 -0.581  -0.574  -0.573  -0.556  -0.556  -0.540  -0.540  -0.533
 -0.533  -0.532  -0.525  -0.521  -0.512  -0.506  -0.500  -0.497
 -0.490  -0.490  -0.488  -0.487  -0.482  -0.481  -0.480  -0.480
 -0.478  -0.473  -0.471  -0.470  -0.468  -0.463  -0.462  -0.461
 -0.459  -0.454  -0.454  -0.453  -0.442  -0.439  -0.438  -0.437
 -0.430  -0.425  -0.423  -0.419  -0.418  -0.416  -0.416  -0.406
 -0.398  -0.398  -0.397  -0.394  -0.393  -0.393  -0.389  -0.387
 -0.373  -0.372  -0.371  -0.362  -0.360  -0.358  -0.351  -0.345
 -0.337  -0.334  -0.319  -0.313  -0.294  -0.293  -0.273  -0.272
 -0.272  -0.260  -0.253  -0.246  -0.246  -0.244

          Ground-State Mulliken Net Atomic Charges

     Atom                 Charge (a.u.)
  ----------------------------------------
      1 C                    -0.155052
      2 C                    -0.390357
      3 H                     0.234760
      4 C                     0.104455
      5 C                     0.078194
      6 C                    -0.381527
      7 H                     0.234249
      8 C                    -0.151622
      9 C                     0.197795
     10 C                    -0.368389
     11 H                     0.222322
     12 C                    -0.071110
     13 C                     0.252248
     14 C                     0.202185
     15 C                    -0.379459
     16 H                     0.222022
     17 C                    -0.205968
     18 H                     0.226687
     19 C                    -0.331663
     20 H                     0.220095
     21 C                    -0.203506
     22 H                     0.226198
     23 C                    -0.335876
     24 H                     0.220420
     25 B                     0.685879
     26 B                     0.685289
     27 C                    -0.150969
     28 C                    -0.382017
     29 H                     0.236013
     30 C                     0.080756
     31 C                     0.103068
     32 C                    -0.390416
     33 H                     0.235952
     34 C                    -0.154586
     35 C                     0.203036
     36 C                    -0.379394
     37 H                     0.222190
     38 C                    -0.071481
     39 C                     0.249130
     40 C                     0.198996
     41 C                    -0.370521
     42 H                     0.222189
     43 C                    -0.203836
     44 H                     0.226109
     45 C                    -0.334765
     46 H                     0.220248
     47 C                    -0.205968
     48 H                     0.226476
     49 C                    -0.330679
     50 H                     0.219865
     51 C                    -0.224492
     52 C                     0.061868
     53 C                    -0.433794
     54 H                     0.220845
     55 C                     0.402627
     56 O                    -0.454832
     57 C                    -0.378963
     58 H                     0.220311
     59 C                     0.063224
     60 C                    -0.405629
     61 H                     0.238756
     62 H                     0.203086
     63 H                     0.203316
     64 C                    -0.759309
     65 H                     0.231433
     66 H                     0.246126
     67 H                     0.245976
     68 C                    -0.757351
     69 H                     0.236033
     70 H                     0.243515
     71 H                     0.243534
     72 C                    -0.220217
     73 C                     0.065228
     74 C                    -0.433399
     75 H                     0.220573
     76 C                     0.402391
     77 O                    -0.454432
     78 C                    -0.382718
     79 H                     0.220100
     80 C                     0.061279
     81 C                    -0.405613
     82 H                     0.238544
     83 H                     0.203063
     84 H                     0.202694
     85 C                    -0.760426
     86 H                     0.236445
     87 H                     0.244794
     88 H                     0.244607
     89 C                    -0.759015
     90 H                     0.231002
     91 H                     0.245330
     92 H                     0.245826
  ----------------------------------------
  Sum of atomic charges =    -0.000000

                    Cartesian Multipole Moments
 -----------------------------------------------------------------
    Charge (ESU x 10^10)
                -0.0000
    Dipole Moment (Debye)
         X      -0.0688      Y      -0.1969      Z      -0.0183
       Tot       0.2094
    Quadrupole Moments (Debye-Ang)
        XX    -265.3956     XY      14.7098     YY    -313.9387
        XZ      -0.8008     YZ       7.1853     ZZ    -260.3692

 Total job time:  22151.76s(wall), 131594.10s(cpu)
        *  Thank you very much for using Q-Chem.  Have a nice day.  *
