 Q-Chem 5.0, Q-Chem, Inc., Pleasanton, CA (2017)
 Q-Chem 5.0.1 for Intel X86 EM64T Linux

User input:
--------------------------------------------------------------
$rem
threads 8
jobtype	opt
method PBEh-3c
basis def2-mSVP
mem_static	1024
mem_total	14000
sym_ignore	true
cis_n_roots             4
cis_singlets            false
cis_triplets		true
rpa                     false
cis_state_deriv         3
state_follow		true
$end

$molecule
read gsopt.mol
$end

--------------------------------------------------------------

   15   -2123.7985757450      6.20E-09 Convergence criterion met
 Total energy in the final basis set = -2123.79857574
   13   -2123.7978923791      5.63E-09 Convergence criterion met
 Total energy in the final basis set = -2123.79789238
   13   -2123.7945081718      6.47E-09 Convergence criterion met
 Total energy in the final basis set = -2123.79450817
   13   -2123.7846997818      6.76E-09 Convergence criterion met
 Total energy in the final basis set = -2123.78469978
   12   -2123.7896676416      4.84E-09 Convergence criterion met
 Total energy in the final basis set = -2123.78966764
   12   -2123.7917009767      5.15E-09 Convergence criterion met
 Total energy in the final basis set = -2123.79170098
   12   -2123.7911083041      8.13E-09 Convergence criterion met
 Total energy in the final basis set = -2123.79110830
   11   -2123.7916673973      9.72E-09 Convergence criterion met
   11   -2123.7949145813      8.87E-09 Convergence criterion met
 Total energy in the final basis set = -2123.79491458
   10   -2123.7948613648      9.35E-09 Convergence criterion met
 Total energy in the final basis set = -2123.79486136
   10   -2123.7948337695      6.99E-09 Convergence criterion met
 Total energy in the final basis set = -2123.79483377
   10   -2123.7947910886      6.89E-09 Convergence criterion met
 Total energy in the final basis set = -2123.79479109
   10   -2123.7948092148      7.60E-09 Convergence criterion met
 Total energy in the final basis set = -2123.79480921
   10   -2123.7947776853      6.87E-09 Convergence criterion met
 Total energy in the final basis set = -2123.79477769

             Standard Nuclear Orientation (Angstroms)
    I     Atom           X                Y                Z
 ----------------------------------------------------------------
    1      C       0.0461771971     0.4535252786     0.0702307575
    2      C       0.0350813887     0.3256888771     1.4707774671
    3      H       0.9774506157     0.2253789587     1.9980135701
    4      C      -1.1553817817     0.3228719364     2.1592663424
    5      C      -2.4081596105     0.4542874702     1.4308351404
    6      C      -2.4160418823     0.5729929576     0.0606968299
    7      H      -3.3534062061     0.6599007735    -0.4782266760
    8      C      -1.2151710502     0.5764088693    -0.6522383525
    9      C      -3.4887670235     0.4177297726     2.3811165239
   10      C      -4.8604073139     0.4950089533     2.2877901197
   11      H      -5.3609148149     0.6161765211     1.3354927489
   12      C      -2.8953440689     0.2611911723     3.6526210316
   13      C      -3.6208548328     0.1734985016     4.8355833333
   14      C      -1.4863980742     0.1984618581     3.5661809580
   15      C      -0.7725614309     0.0388293342     4.7295558395
   16      H       0.3080487415    -0.0196761652     4.7312699436
   17      C      -5.6146107574     0.4120327188     3.4732095851
   18      H      -6.6932117290     0.4723458840     3.4070489999
   19      C      -5.0298487458     0.2555576004     4.7121201172
   20      H      -5.6537025396     0.1949600210     5.5951962816
   21      C      -1.4825759988    -0.0524918640     5.9451129183
   22      H      -0.9204811292    -0.1789730101     6.8609734410
   23      C      -2.8571992227     0.0109088448     6.0147325094
   24      H      -3.3524592937    -0.0654851598     6.9746020790
   25      B       1.3782329950     0.4478456129    -0.6974038353
   26      B      -1.2423721368     0.7003934468    -2.1822543992
   27      C       0.0952767153     0.7182684197    -2.9353392965
   28      C       0.0990938865     0.8341110372    -4.3291123422
   29      H      -0.8430380517     0.9237488992    -4.8585508102
   30      C       1.2852517380     0.8201972336    -5.0215143527
   31      C       2.5482529008     0.6955011296    -4.3228272576
   32      C       2.5613357061     0.5904890940    -2.9529421509
   33      H       3.4987896994     0.4926277285    -2.4169601344
   34      C       1.3558893172     0.5954012975    -2.2275491777
   35      C       3.6020622245     0.6857380669    -5.3253432682
   36      C       4.9716148952     0.5787398585    -5.3078023468
   37      H       5.5244669874     0.4836125749    -4.3821956376
   38      C       2.9583018513     0.7994685103    -6.5772556679
   39      C       3.6145823732     0.8075111229    -7.8047083948
   40      C       1.5561996160     0.8867729016    -6.4398437764
   41      C       0.7809627620     0.9905321951    -7.5721597063
   42      H      -0.2984253706     1.0582435822    -7.5206675469
   43      C       5.6635212903     0.5885081343    -6.5385258854
   44      H       6.7421151636     0.5031158277    -6.5231360164
   45      C       5.0237837804     0.6974350950    -7.7529821855
   46      H       5.6012080513     0.6958177279    -8.6692202953
   47      C       1.4248999610     1.0041094639    -8.8259055694
   48      H       0.8190619240     1.0846577492    -9.7191644979
   49      C       2.7938063161     0.9154646976    -8.9541442790
   50      H       3.2427857220     0.9261974549    -9.9397181799
   51      C      -2.6031928503     0.7840563513    -2.9744911087
   52      C      -3.2163876573    -0.3773553363    -3.4494328040
   53      C      -4.4059998500    -0.3128230433    -4.1728902824
   54      H      -4.8485668832    -1.2360299287    -4.5251477701
   55      C      -5.0008065816     0.9139890082    -4.4317118029
   56      O      -6.1515823516     1.0750983875    -5.1204453511
   57      C      -4.3970293153     2.0772646290    -3.9640844122
   58      H      -4.8674933559     3.0310165596    -4.1717503904
   59      C      -3.2142369512     2.0183032574    -3.2458987438
   60      C      -6.7988546144    -0.0648666264    -5.6174055307
   61      H      -7.6948498301     0.2829524640    -6.1277210414
   62      H      -6.1822865372    -0.6146927854    -6.3364266095
   63      H      -7.0988164594    -0.7544936830    -4.8214204975
   64      C      -2.5896067679    -1.7196854337    -3.1905144965
   65      H      -3.1971924142    -2.5343004329    -3.5847338964
   66      H      -1.6023660180    -1.7935857793    -3.6518170871
   67      H      -2.4536280578    -1.8979898441    -2.1219799151
   68      C      -2.5751174707     3.2877075545    -2.7582852587
   69      H      -3.1578682733     4.1666502459    -3.0321333270
   70      H      -1.5734712777     3.4122506427    -3.1753672819
   71      H      -2.4678966832     3.2866991552    -1.6717325220
   72      C       2.7428866281     0.2750569397     0.0605429357
   73      C       3.4428077419     1.3835925418     0.5355930205
   74      C       4.6596553266     1.2264335076     1.1972280541
   75      H       5.1745279021     2.1095010840     1.5536965784
   76      C       5.1890584490    -0.0429685009     1.3887228621
   77      O       6.3575404401    -0.2948413714     2.0178274508
   78      C       4.4966080207    -1.1540198239     0.9151916823
   79      H       4.9190435547    -2.1397728252     1.0703442682
   80      C       3.2870219059    -1.0029686351     0.2582925560
   81      C       7.0846736225     0.7870270354     2.5316976272
   82      H       7.9758715277     0.3709686027     2.9973364614
   83      H       6.5240402194     1.3426177198     3.2909836555
   84      H       7.3968752715     1.4884581043     1.7508232621
   85      C       2.5531403823    -2.2122316293    -0.2521701238
   86      H       3.0739456695    -3.1371479054    -0.0060203867
   87      H       2.4368302476    -2.1776394149    -1.3377373437
   88      H       1.5479407488    -2.2768506669     0.1701922150
   89      C       2.8819021246     2.7627898437     0.3245481408
   90      H       3.5196437809     3.5333639761     0.7572413006
   91      H       2.7693225180     2.9866430804    -0.7385869634
   92      H       1.8914576154     2.8643826685     0.7735440771
 ----------------------------------------------------------------

    8   -2123.7948023509      8.69E-09 Convergence criterion met
 Total energy in the final basis set = -2123.79480235

         TDDFT/TDA Excitation Energies
 ---------------------------------------------------

 Excited state   1: excitation energy (eV) =    1.9915
 Total energy for state  1:                 -2123.72161679 au
    Multiplicity: Triplet
    Trans. Mom.:  0.0000 X   0.0000 Y   0.0000 Z
    Strength   :     0.0000000000
    D(175) --> V(  2) amplitude = -0.2569
    D(181) --> V(  1) amplitude =  0.9056

 Excited state   2: excitation energy (eV) =    2.3753
 Total energy for state  2:                 -2123.70751316 au
    Multiplicity: Triplet
    Trans. Mom.:  0.0000 X   0.0000 Y   0.0000 Z
    Strength   :     0.0000000000
    D(178) --> V(  2) amplitude = -0.4798
    D(179) --> V(  1) amplitude =  0.7892

 Excited state   3: excitation energy (eV) =    2.4319
 Total energy for state  3:                 -2123.70542997 au
    Multiplicity: Triplet
    Trans. Mom.:  0.0000 X   0.0000 Y   0.0000 Z
    Strength   :     0.0000000000
    D(178) --> V(  1) amplitude = -0.6953
    D(178) --> V(  4) amplitude =  0.2141
    D(179) --> V(  2) amplitude =  0.5005
    D(181) --> V(  2) amplitude = -0.2439

 Excited state   4: excitation energy (eV) =    2.5042
 Total energy for state  4:                 -2123.70277401 au
    Multiplicity: Triplet
    Trans. Mom.:  0.0000 X   0.0000 Y   0.0000 Z
    Strength   :     0.0000000000
    D(175) --> V(  1) amplitude =  0.6945
    D(179) --> V(  2) amplitude = -0.2532
    D(181) --> V(  2) amplitude = -0.5201

 ---------------------------------------------------

 Final energy is   -2123.72161679498
 **  OPTIMIZATION CONVERGED  **

                    Orbital Energies (a.u.)
 --------------------------------------------------------------

 Alpha MOs
 -- Occupied --
-19.522 -19.521 -10.498 -10.497 -10.488 -10.487 -10.464 -10.464
-10.464 -10.463 -10.463 -10.463 -10.462 -10.462 -10.462 -10.461
-10.461 -10.461 -10.460 -10.460 -10.459 -10.459 -10.458 -10.458
-10.458 -10.458 -10.458 -10.457 -10.450 -10.450 -10.449 -10.449
-10.448 -10.448 -10.448 -10.447 -10.445 -10.445 -10.432 -10.431
-10.431 -10.430 -10.430 -10.430 -10.426 -10.425 -10.424 -10.424
-10.423 -10.422 -10.412 -10.410  -6.939  -6.938  -1.179  -1.179
 -1.012  -1.012  -0.957  -0.953  -0.950  -0.948  -0.932  -0.932
 -0.902  -0.894  -0.868  -0.868  -0.859  -0.854  -0.850  -0.847
 -0.846  -0.845  -0.814  -0.811  -0.810  -0.795  -0.788  -0.787
 -0.763  -0.762  -0.753  -0.752  -0.731  -0.729  -0.727  -0.716
 -0.687  -0.683  -0.676  -0.664  -0.657  -0.647  -0.641  -0.640
 -0.640  -0.639  -0.596  -0.592  -0.588  -0.588  -0.582  -0.581
 -0.581  -0.574  -0.573  -0.556  -0.556  -0.540  -0.540  -0.533
 -0.533  -0.532  -0.525  -0.521  -0.512  -0.506  -0.500  -0.496
 -0.490  -0.490  -0.488  -0.487  -0.482  -0.481  -0.480  -0.480
 -0.478  -0.473  -0.471  -0.470  -0.468  -0.463  -0.462  -0.461
 -0.459  -0.454  -0.454  -0.453  -0.442  -0.439  -0.438  -0.437
 -0.430  -0.425  -0.423  -0.419  -0.418  -0.416  -0.416  -0.406
 -0.398  -0.398  -0.397  -0.394  -0.393  -0.393  -0.389  -0.387
 -0.373  -0.372  -0.371  -0.362  -0.360  -0.358  -0.351  -0.345
 -0.337  -0.334  -0.319  -0.313  -0.294  -0.293  -0.273  -0.272
 -0.272  -0.260  -0.253  -0.246  -0.246  -0.244

          Ground-State Mulliken Net Atomic Charges

     Atom                 Charge (a.u.)
  ----------------------------------------
      1 C                    -0.155021
      2 C                    -0.390122
      3 H                     0.234741
      4 C                     0.103944
      5 C                     0.077832
      6 C                    -0.381371
      7 H                     0.234236
      8 C                    -0.151703
      9 C                     0.197926
     10 C                    -0.368135
     11 H                     0.222362
     12 C                    -0.071406
     13 C                     0.252224
     14 C                     0.202292
     15 C                    -0.379098
     16 H                     0.222063
     17 C                    -0.206003
     18 H                     0.226710
     19 C                    -0.331598
     20 H                     0.220118
     21 C                    -0.203514
     22 H                     0.226218
     23 C                    -0.335855
     24 H                     0.220445
     25 B                     0.685939
     26 B                     0.685306
     27 C                    -0.150885
     28 C                    -0.382186
     29 H                     0.236005
     30 C                     0.081074
     31 C                     0.103358
     32 C                    -0.390609
     33 H                     0.235941
     34 C                    -0.154614
     35 C                     0.203020
     36 C                    -0.379676
     37 H                     0.222151
     38 C                    -0.071165
     39 C                     0.249122
     40 C                     0.198864
     41 C                    -0.370747
     42 H                     0.222156
     43 C                    -0.203822
     44 H                     0.226091
     45 C                    -0.334798
     46 H                     0.220225
     47 C                    -0.205980
     48 H                     0.226459
     49 C                    -0.330711
     50 H                     0.219846
     51 C                    -0.224513
     52 C                     0.061857
     53 C                    -0.433747
     54 H                     0.220827
     55 C                     0.402612
     56 O                    -0.454882
     57 C                    -0.378941
     58 H                     0.220311
     59 C                     0.063237
     60 C                    -0.405576
     61 H                     0.238746
     62 H                     0.203079
     63 H                     0.203310
     64 C                    -0.759334
     65 H                     0.231446
     66 H                     0.246121
     67 H                     0.245988
     68 C                    -0.757335
     69 H                     0.236024
     70 H                     0.243509
     71 H                     0.243541
     72 C                    -0.220210
     73 C                     0.065225
     74 C                    -0.433336
     75 H                     0.220568
     76 C                     0.402384
     77 O                    -0.454440
     78 C                    -0.382770
     79 H                     0.220103
     80 C                     0.061305
     81 C                    -0.405590
     82 H                     0.238539
     83 H                     0.203051
     84 H                     0.202680
     85 C                    -0.760498
     86 H                     0.236467
     87 H                     0.244820
     88 H                     0.244628
     89 C                    -0.758969
     90 H                     0.230989
     91 H                     0.245315
     92 H                     0.245812
  ----------------------------------------
  Sum of atomic charges =    -0.000000

                    Cartesian Multipole Moments
 -----------------------------------------------------------------
    Charge (ESU x 10^10)
                -0.0000
    Dipole Moment (Debye)
         X      -0.0741      Y      -0.1968      Z      -0.0046
       Tot       0.2104
    Quadrupole Moments (Debye-Ang)
        XX    -265.3890     XY      14.7170     YY    -313.9473
        XZ      -0.7844     YZ       7.1942     ZZ    -260.3872

 Total job time:  46191.31s(wall), 268514.90s(cpu)
        *  Thank you very much for using Q-Chem.  Have a nice day.  *
