 Q-Chem 5.0, Q-Chem, Inc., Pleasanton, CA (2017)
 Q-Chem 5.0.1 for Intel X86 EM64T Linux

User input:
--------------------------------------------------------------
$rem
threads 8
jobtype	opt
method PBEh-3c
basis def2-mSVP
mem_static	1024
mem_total	14000
sym_ignore	true
cis_n_roots             6
cis_singlets            false
cis_triplets		true
rpa                     false
cis_state_deriv         5
state_follow		true
$end

$molecule
read gsopt.mol
$end

--------------------------------------------------------------

   15   -2123.7985757450      6.20E-09 Convergence criterion met
 Total energy in the final basis set = -2123.79857574
   13   -2123.7982083706      5.98E-09 Convergence criterion met
 Total energy in the final basis set = -2123.79820837
   13   -2123.7967577183      5.28E-09 Convergence criterion met
 Total energy in the final basis set = -2123.79675772
   13   -2123.7926415941      5.83E-09 Convergence criterion met
 Total energy in the final basis set = -2123.79264159
   13   -2123.7897479139      5.60E-09 Convergence criterion met
 Total energy in the final basis set = -2123.78974791
   12   -2123.7925082095      4.89E-09 Convergence criterion met
 Total energy in the final basis set = -2123.79250821
   13   -2123.7854345723      8.72E-09 Convergence criterion met
 Total energy in the final basis set = -2123.78543457
   13   -2123.7917572342      7.53E-09 Convergence criterion met
   12   -2123.7942118142      5.46E-09 Convergence criterion met
 Total energy in the final basis set = -2123.79421181
   10   -2123.7946199670      9.84E-09 Convergence criterion met
 Total energy in the final basis set = -2123.79461997
   10   -2123.7946991281      6.05E-09 Convergence criterion met
 Total energy in the final basis set = -2123.79469913
   10   -2123.7947727339      8.51E-09 Convergence criterion met
 Total energy in the final basis set = -2123.79477273
    9   -2123.7947699350      9.70E-09 Convergence criterion met
 Total energy in the final basis set = -2123.79476993
    9   -2123.7947722411      7.29E-09 Convergence criterion met
 Total energy in the final basis set = -2123.79477224

             Standard Nuclear Orientation (Angstroms)
    I     Atom           X                Y                Z
 ----------------------------------------------------------------
    1      C       0.0462795824     0.4530275950     0.0698703308
    2      C       0.0349441572     0.3256203938     1.4706617106
    3      H       0.9772583149     0.2254599493     1.9979877659
    4      C      -1.1554861620     0.3231014433     2.1588425420
    5      C      -2.4081431000     0.4543154273     1.4303103444
    6      C      -2.4158052120     0.5727876567     0.0600464493
    7      H      -3.3530846975     0.6598464225    -0.4789592834
    8      C      -1.2149920171     0.5758985574    -0.6527088889
    9      C      -3.4887976518     0.4181615254     2.3803224361
   10      C      -4.8604609520     0.4956837633     2.2866558758
   11      H      -5.3607451539     0.6165995967     1.3341963782
   12      C      -2.8956479038     0.2620699580     3.6520675439
   13      C      -3.6214240434     0.1751635258     4.8349429219
   14      C      -1.4867864507     0.1992648500     3.5659924472
   15      C      -0.7732076158     0.0404649247     4.7294834717
   16      H       0.3073930503    -0.0179252311     4.7315199754
   17      C      -5.6149012198     0.4133693483     3.4719677375
   18      H      -6.6934794632     0.4738404671     3.4056112318
   19      C      -5.0304123980     0.2573882070     4.7110969185
   20      H      -5.6545106397     0.1973407659     5.5940408901
   21      C      -1.4834731666    -0.0501005493     5.9450330728
   22      H      -0.9214854172    -0.1759492300     6.8610196310
   23      C      -2.8580312687     0.0133106785     6.0143842143
   24      H      -3.3534643694    -0.0624697601     6.9742180463
   25      B       1.3784233564     0.4470814814    -0.6974859344
   26      B      -1.2421682117     0.6995593539    -2.1826563749
   27      C       0.0954549522     0.7163445874    -2.9356659432
   28      C       0.0993450561     0.8311618910    -4.3295064555
   29      H      -0.8427806487     0.9204084114    -4.8589678700
   30      C       1.2854885985     0.8170037201    -5.0217824471
   31      C       2.5486590350     0.6929647868    -4.3228415201
   32      C       2.5616408958     0.5887320839    -2.9528641283
   33      H       3.4990505718     0.4913192686    -2.4167443010
   34      C       1.3561931233     0.5939194807    -2.2275736642
   35      C       3.6024084438     0.6832604284    -5.3252155768
   36      C       4.9721432791     0.5768956156    -5.3075036943
   37      H       5.5249097753     0.4822244104    -4.3817963977
   38      C       2.9586707934     0.7964249170    -6.5772964567
   39      C       3.6150926438     0.8046278908    -7.8047034268
   40      C       1.5565214045     0.8832314464    -6.4400818733
   41      C       0.7813435792     0.9865898079    -7.5724259725
   42      H      -0.2980687637     1.0539725850    -7.5210718103
   43      C       5.6640425636     0.5867799235    -6.5381485855
   44      H       6.7426869127     0.5019095831    -6.5228552235
   45      C       5.0243248241     0.6952347152    -7.7527623722
   46      H       5.6019244356     0.6937949123    -8.6688855061
   47      C       1.4254550129     1.0002633872    -8.8261258887
   48      H       0.8196448676     1.0804940555    -9.7194319511
   49      C       2.7943466466     0.9121401780    -8.9542167559
   50      H       3.2434304140     0.9229724302    -9.9397348981
   51      C      -2.6028966604     0.7841420007    -2.9748511809
   52      C      -3.2173574634    -0.3767100378    -3.4493897502
   53      C      -4.4070904606    -0.3111332622    -4.1726106027
   54      H      -4.8506574523    -1.2339670872    -4.5246280158
   55      C      -5.0006860903     0.9161985514    -4.4314556973
   56      O      -6.1514728757     1.0781015883    -5.1199587289
   57      C      -4.3956669902     2.0789693272    -3.9641673899
   58      H      -4.8651975595     3.0331649001    -4.1718783162
   59      C      -3.2127612003     2.0189521668    -3.2463039552
   60      C      -6.7991638149    -0.0617387312    -5.6165248016
   61      H      -7.6950516632     0.2862377009    -6.1269102632
   62      H      -6.1828193622    -0.6120269316    -6.3353753983
   63      H      -7.0993197134    -0.7510148344    -4.8203147376
   64      C      -2.5919099482    -1.7196155658    -3.1903643270
   65      H      -3.2001216929    -2.5336209687    -3.5848824281
   66      H      -1.6045534727    -1.7943994990    -3.6512997007
   67      H      -2.4564908311    -1.8981019855    -2.1217859414
   68      C      -2.5725422106     3.2877357962    -2.7587041007
   69      H      -3.1538922841     4.1672617583    -3.0336497766
   70      H      -1.5702734878     3.4108250608    -3.1747241118
   71      H      -2.4665671555     3.2870738029    -1.6720182239
   72      C       2.7429991722     0.2749885280     0.0607714370
   73      C       3.4424847328     1.3837884636     0.5357195114
   74      C       4.6590923504     1.2271288083     1.1978885025
   75      H       5.1735843118     2.1104289061     1.5543708595
   76      C       5.1887217071    -0.0420349706     1.3899161657
   77      O       6.3570309519    -0.2933007080     2.0195350050
   78      C       4.4967559023    -1.1534078911     0.9164255769
   79      H       4.9194378562    -2.1390078471     1.0718852152
   80      C       3.2873835287    -1.0028500312     0.2591042640
   81      C       7.0841549973     0.7893372960     2.5317634461
   82      H       7.9758097810     0.3740629481     2.9972237542
   83      H       6.5238649421     1.3455264182     3.2908628085
   84      H       7.3955149697     1.4900677177     1.7499395932
   85      C       2.5540190735    -2.2124726399    -0.2511858780
   86      H       3.0757672961    -3.1370718555    -0.0058065595
   87      H       2.4366673349    -2.1776252671    -1.3366382040
   88      H       1.5492459513    -2.2780174296     0.1720836452
   89      C       2.8811232229     2.7627495301     0.3244545520
   90      H       3.5196026282     3.5337572142     0.7552954519
   91      H       2.7664909057     2.9856491341    -0.7386633772
   92      H       1.8914852614     2.8645869474     0.7752286427
 ----------------------------------------------------------------

    8   -2123.7947715420      8.53E-09 Convergence criterion met
 Total energy in the final basis set = -2123.79477154

         TDDFT/TDA Excitation Energies
 ---------------------------------------------------

 Excited state   1: excitation energy (eV) =    1.9906
 Total energy for state  1:                 -2123.72161860 au
    Multiplicity: Triplet
    Trans. Mom.:  0.0000 X   0.0000 Y   0.0000 Z
    Strength   :     0.0000000000
    D(175) --> V(  2) amplitude = -0.2571
    D(181) --> V(  1) amplitude =  0.9068

 Excited state   2: excitation energy (eV) =    2.3752
 Total energy for state  2:                 -2123.70748575 au
    Multiplicity: Triplet
    Trans. Mom.:  0.0000 X   0.0000 Y   0.0000 Z
    Strength   :     0.0000000000
    D(178) --> V(  2) amplitude = -0.4795
    D(179) --> V(  1) amplitude =  0.7898

 Excited state   3: excitation energy (eV) =    2.4315
 Total energy for state  3:                 -2123.70541459 au
    Multiplicity: Triplet
    Trans. Mom.:  0.0000 X   0.0000 Y   0.0000 Z
    Strength   :     0.0000000000
    D(178) --> V(  1) amplitude =  0.6953
    D(178) --> V(  4) amplitude = -0.2139
    D(179) --> V(  2) amplitude = -0.4994
    D(181) --> V(  2) amplitude =  0.2466

 Excited state   4: excitation energy (eV) =    2.5038
 Total energy for state  4:                 -2123.70275823 au
    Multiplicity: Triplet
    Trans. Mom.:  0.0000 X   0.0000 Y   0.0000 Z
    Strength   :     0.0000000000
    D(175) --> V(  1) amplitude =  0.6943
    D(179) --> V(  2) amplitude = -0.2560
    D(181) --> V(  2) amplitude = -0.5193

 Excited state   5: excitation energy (eV) =    2.7214
 Total energy for state  5:                 -2123.69476120 au
    Multiplicity: Triplet
    Trans. Mom.:  0.0000 X   0.0000 Y   0.0000 Z
    Strength   :     0.0000000000
    D(182) --> V(  1) amplitude =  0.9363

 Excited state   6: excitation energy (eV) =    2.8375
 Total energy for state  6:                 -2123.69049692 au
    Multiplicity: Triplet
    Trans. Mom.:  0.0000 X   0.0000 Y   0.0000 Z
    Strength   :     0.0000000000
    D(180) --> V(  1) amplitude =  0.9495

 ---------------------------------------------------

 Final energy is   -2123.72161859817
 **  OPTIMIZATION CONVERGED  **

                    Orbital Energies (a.u.)
 --------------------------------------------------------------

 Alpha MOs
 -- Occupied --
-19.522 -19.521 -10.498 -10.497 -10.488 -10.487 -10.464 -10.464
-10.464 -10.463 -10.463 -10.463 -10.462 -10.462 -10.462 -10.461
-10.461 -10.461 -10.460 -10.460 -10.459 -10.459 -10.458 -10.458
-10.458 -10.458 -10.458 -10.457 -10.450 -10.450 -10.449 -10.449
-10.448 -10.448 -10.448 -10.447 -10.445 -10.445 -10.432 -10.431
-10.431 -10.430 -10.430 -10.430 -10.426 -10.425 -10.424 -10.424
-10.423 -10.422 -10.412 -10.410  -6.939  -6.938  -1.179  -1.179
 -1.012  -1.012  -0.957  -0.953  -0.950  -0.948  -0.932  -0.932
 -0.902  -0.894  -0.868  -0.868  -0.859  -0.854  -0.850  -0.847
 -0.846  -0.845  -0.814  -0.811  -0.810  -0.795  -0.788  -0.787
 -0.763  -0.762  -0.753  -0.752  -0.731  -0.729  -0.727  -0.716
 -0.687  -0.683  -0.676  -0.664  -0.657  -0.647  -0.641  -0.640
 -0.640  -0.639  -0.596  -0.592  -0.588  -0.588  -0.582  -0.581
 -0.581  -0.574  -0.573  -0.556  -0.556  -0.540  -0.540  -0.533
 -0.533  -0.532  -0.525  -0.521  -0.512  -0.506  -0.500  -0.497
 -0.490  -0.490  -0.488  -0.487  -0.482  -0.481  -0.480  -0.480
 -0.478  -0.473  -0.471  -0.470  -0.468  -0.463  -0.462  -0.461
 -0.459  -0.454  -0.454  -0.453  -0.442  -0.439  -0.438  -0.437
 -0.430  -0.425  -0.423  -0.419  -0.418  -0.416  -0.416  -0.406
 -0.398  -0.398  -0.397  -0.394  -0.393  -0.393  -0.389  -0.387
 -0.373  -0.372  -0.371  -0.362  -0.360  -0.358  -0.351  -0.345
 -0.337  -0.334  -0.319  -0.313  -0.294  -0.293  -0.273  -0.272
 -0.272  -0.260  -0.253  -0.246  -0.246  -0.244

          Ground-State Mulliken Net Atomic Charges

     Atom                 Charge (a.u.)
  ----------------------------------------
      1 C                    -0.155110
      2 C                    -0.390162
      3 H                     0.234749
      4 C                     0.103971
      5 C                     0.077872
      6 C                    -0.381403
      7 H                     0.234238
      8 C                    -0.151566
      9 C                     0.197901
     10 C                    -0.368120
     11 H                     0.222364
     12 C                    -0.071336
     13 C                     0.252132
     14 C                     0.202325
     15 C                    -0.379166
     16 H                     0.222061
     17 C                    -0.205987
     18 H                     0.226708
     19 C                    -0.331605
     20 H                     0.220117
     21 C                    -0.203540
     22 H                     0.226218
     23 C                    -0.335816
     24 H                     0.220443
     25 B                     0.685859
     26 B                     0.685270
     27 C                    -0.150925
     28 C                    -0.382136
     29 H                     0.236012
     30 C                     0.080928
     31 C                     0.103398
     32 C                    -0.390584
     33 H                     0.235944
     34 C                    -0.154534
     35 C                     0.202877
     36 C                    -0.379550
     37 H                     0.222160
     38 C                    -0.071215
     39 C                     0.249106
     40 C                     0.198996
     41 C                    -0.370734
     42 H                     0.222165
     43 C                    -0.203832
     44 H                     0.226092
     45 C                    -0.334795
     46 H                     0.220234
     47 C                    -0.205998
     48 H                     0.226462
     49 C                    -0.330662
     50 H                     0.219848
     51 C                    -0.224524
     52 C                     0.061872
     53 C                    -0.433796
     54 H                     0.220852
     55 C                     0.402642
     56 O                    -0.454814
     57 C                    -0.378989
     58 H                     0.220308
     59 C                     0.063273
     60 C                    -0.405655
     61 H                     0.238756
     62 H                     0.203085
     63 H                     0.203310
     64 C                    -0.759297
     65 H                     0.231432
     66 H                     0.246106
     67 H                     0.245972
     68 C                    -0.757376
     69 H                     0.236032
     70 H                     0.243540
     71 H                     0.243543
     72 C                    -0.220188
     73 C                     0.065201
     74 C                    -0.433400
     75 H                     0.220579
     76 C                     0.402415
     77 O                    -0.454403
     78 C                    -0.382781
     79 H                     0.220098
     80 C                     0.061348
     81 C                    -0.405636
     82 H                     0.238546
     83 H                     0.203045
     84 H                     0.202698
     85 C                    -0.760503
     86 H                     0.236462
     87 H                     0.244839
     88 H                     0.244602
     89 C                    -0.758960
     90 H                     0.230982
     91 H                     0.245327
     92 H                     0.245784
  ----------------------------------------
  Sum of atomic charges =    -0.000000

                    Cartesian Multipole Moments
 -----------------------------------------------------------------
    Charge (ESU x 10^10)
                -0.0000
    Dipole Moment (Debye)
         X      -0.0740      Y      -0.1940      Z      -0.0074
       Tot       0.2078
    Quadrupole Moments (Debye-Ang)
        XX    -265.3845     XY      14.7240     YY    -313.9514
        XZ      -0.8039     YZ       7.2094     ZZ    -260.3907

 Total job time:  64978.10s(wall), 372309.74s(cpu)
        *  Thank you very much for using Q-Chem.  Have a nice day.  *
