 Q-Chem 5.1, Q-Chem, Inc., Pleasanton, CA (2018)
 Q-Chem 5.1.1 for Intel X86 EM64T Linux

User input:
--------------------------------------------------------------
$rem
threads 8
jobtype	opt
method PBEh-3c
basis def2-mSVP
mem_static	512
mem_total	6096
sym_ignore	true
$end

$molecule
read incoords.mol
$end

--------------------------------------------------------------

   14   -3082.4496422425      9.63e-09  Convergence criterion met
 Total energy in the final basis set =    -3082.4496422425
   12   -3082.4628714597      5.85e-09  Convergence criterion met
 Total energy in the final basis set =    -3082.4628714597
   11   -3082.4627796334      9.65e-09  Convergence criterion met
 Total energy in the final basis set =    -3082.4627796334
   12   -3082.4623447081      6.05e-09  Convergence criterion met
 Total energy in the final basis set =    -3082.4623447081
   12   -3082.4614657778      6.09e-09  Convergence criterion met
 Total energy in the final basis set =    -3082.4614657778
   12   -3082.4599226727      5.88e-09  Convergence criterion met
 Total energy in the final basis set =    -3082.4599226727
   11   -3082.4596664498      7.60e-09  Convergence criterion met
 Total energy in the final basis set =    -3082.4596664498
   11   -3082.4595889143      6.37e-09  Convergence criterion met
    7   -3082.4600709567      7.94e-09  Convergence criterion met
 Total energy in the final basis set =    -3082.4600709567
    7   -3082.4600671923      9.12e-09  Convergence criterion met
 Total energy in the final basis set =    -3082.4600671923
    7   -3082.4600637350      7.15e-09  Convergence criterion met
 Total energy in the final basis set =    -3082.4600637350
    7   -3082.4600565063      9.26e-09  Convergence criterion met
 Total energy in the final basis set =    -3082.4600565063
    7   -3082.4600535817      6.48e-09  Convergence criterion met
 Total energy in the final basis set =    -3082.4600535817
    7   -3082.4600518168      7.14e-09  Convergence criterion met
 Total energy in the final basis set =    -3082.4600518168

             Standard Nuclear Orientation (Angstroms)
    I     Atom           X                Y                Z
 ----------------------------------------------------------------
    1      C     -11.8355451434    -1.4337060504   -11.0027632326
    2      C     -11.0693037262    -1.1466765160    -9.8636887426
    3      N     -10.1988204257    -2.1964810598    -9.6354051129
    4      C     -10.3988525857    -3.1538104549   -10.6077689105
    5      C     -11.4075928603    -2.7203560494   -11.4789523414
    6      C     -11.7989408104    -3.5289762560   -12.5435296985
    7      C     -11.1906045066    -4.7555894625   -12.7443040616
    8      C     -10.1735737376    -5.1561179042   -11.8634966131
    9      C      -9.7641693946    -4.3769846648   -10.7988854160
   10      C     -12.8213393615    -0.5475668118   -11.4224288055
   11      C     -13.0506311408     0.6165122781   -10.7112661610
   12      C     -12.2739972478     0.8741366231    -9.5706101010
   13      C     -11.2871508618     0.0124577325    -9.1304173681
   14      C      -9.2893746743    -2.2902435417    -8.5666939923
   15      C      -8.3112697695    -1.3201815374    -8.4166371925
   16      C      -7.4328843157    -1.3700719639    -7.3444075525
   17      C      -7.5204603695    -2.4184504255    -6.4199230542
   18      C      -8.4872095349    -3.4153991746    -6.5946694447
   19      C      -9.3732557215    -3.3389070832    -7.6627261440
   20      B      -6.5607009773    -2.3926491651    -5.1791144124
   21      C      -5.1725844367    -3.0773618880    -5.2194427446
   22      C      -4.8590999709    -3.9673921805    -6.2463776948
   23      C      -3.6359282183    -4.6083128153    -6.2458387540
   24      C      -2.6800349718    -4.3342506127    -5.2421763290
   25      C      -2.9661699721    -3.4117927386    -4.2504273349
   26      C      -4.2200345954    -2.7932632551    -4.2140946059
   27      C      -1.5085390465    -5.1781120673    -5.4988180358
   28      C      -1.8104169061    -5.9310009085    -6.6494083966
   29      C      -3.0896299685    -5.6217419315    -7.1433897659
   30      C      -0.9724070053    -6.8867031415    -7.2131871902
   31      C       0.2684962927    -7.0819759545    -6.5620274491
   32      C       0.5776113514    -6.3518547519    -5.4386382389
   33      C      -0.3030968323    -5.3912845584    -4.8858100432
   34      C      -3.5512041821    -6.2860145638    -8.2494724919
   35      C      -2.7168038074    -7.2577449641    -8.8492174898
   36      C      -1.4679409919    -7.5578167588    -8.3578380995
   37      B      -4.5731484972    -1.7578817613    -3.1056218534
   38      C      -6.0423573315    -1.2916747734    -2.9147946266
   39      C      -6.4228414154    -0.5328323343    -1.8021824159
   40      C      -7.7399265080    -0.1284740637    -1.6600334029
   41      C      -8.6833478280    -0.4543591724    -2.6604238625
   42      C      -8.3093184611    -1.1655830655    -3.7824544143
   43      C      -6.9932885951    -1.6059748065    -3.9134873205
   44      C      -9.9790020029     0.0952449360    -2.2777744683
   45      C      -9.7795384692     0.7429483158    -1.0473031956
   46      C      -8.4402457530     0.6402883750    -0.6243296633
   47      C     -10.7859454325     1.3980969496    -0.3465142714
   48      C     -12.0719890033     1.3889451614    -0.9393560623
   49      C     -12.2744271281     0.7561266660    -2.1434333602
   50      C     -11.2313643429     0.0979695757    -2.8347824190
   51      C      -8.0948245804     1.2285136962     0.5628158275
   52      C      -9.0952062088     1.9056154691     1.3015338565
   53      C     -10.3994216004     1.9958440831     0.8755854345
   54      C      -6.3922135556    -0.2995268908    -7.1771481542
   55      C      -8.5829722471    -4.5507924556    -5.6140135376
   56      C      -3.4096359841    -1.1171414734    -2.2749604520
   57      C      -2.9287888005    -1.6717178940    -1.0864849951
   58      C      -1.8250444216    -1.1052304403    -0.4577973190
   59      C      -1.2162221083     0.0193006706    -0.9939687229
   60      C      -1.7184657949     0.5942382115    -2.1534398883
   61      C      -2.8032230514     0.0281664310    -2.8055724067
   62      N      -0.0777621722     0.5748144588    -0.3806353172
   63      C      -0.0242362247     1.1469963050     0.8735680305
   64      C       1.2479118466     1.7053741160     1.0723433840
   65      C       1.9964779050     1.4616042217    -0.1347490339
   66      C       1.1380350131     0.7692000995    -1.0013284243
   67      C       1.5184269105     2.3758347869     2.2612135953
   68      C       0.5365758966     2.4918798013     3.2306005613
   69      C      -0.7275903714     1.9303862416     2.9924565835
   70      C      -1.0289338704     1.2581753687     1.8253382128
   71      C       3.2820839415     1.7813535336    -0.5632774283
   72      C       3.7030377496     1.4169092375    -1.8311337164
   73      C       2.8212574776     0.7133699148    -2.6665333264
   74      C       1.5420277565     0.3783985415    -2.2729307970
   75      C      -3.5906443800    -2.8957839443    -0.5164204769
   76      C      -3.3232118729     0.6364183655    -4.0791979083
   77      H      -2.0159902499     0.8479305584     1.6559325068
   78      H      -1.4974690301     2.0353617877     3.7480944150
   79      H       0.8801105508    -0.1641926137    -2.9353942755
   80      H       3.1552898157     0.4244920492    -3.6564236446
   81      C       5.0759157793     1.7683521725    -2.3281668149
   82      H       3.9536968318     2.3226484051     0.0927225548
   83      C       0.7998014060     3.2100799080     4.5228778137
   84      H       2.4935710477     2.8198654954     2.4235274371
   85      H      -1.2501204095     1.4856954144    -2.5536633318
   86      H      -1.4207812280    -1.5541402535     0.4419412473
   87      H      -3.1112129798    -3.2258432730     0.4042822704
   88      H      -4.6435735502    -2.7118340470    -0.2914040389
   89      H      -3.5612487283    -3.7316719766    -1.2192448734
   90      H      -2.7549856119     1.5210753775    -4.3643495074
   91      H      -4.3694383515     0.9353205473    -3.9838454916
   92      H      -3.2663986389    -0.0693883458    -4.9115729348
   93      H      -5.6807832113    -0.2629345322    -1.0591634675
   94      H      -9.0342845272    -1.3783711578    -4.5608990781
   95      H     -11.4404034182    -0.3864757230    -3.7809304849
   96      H      -7.0838029350     1.1896767195     0.9479069701
   97      H     -13.2643676248     0.7594006661    -2.5808562230
   98      H     -12.9003951331     1.8808649795    -0.4444914865
   99      H      -8.8172327653     2.3695129175     2.2385791076
  100      H     -11.1290322972     2.5252261746     1.4759466622
  101      H      -5.5812745509    -4.1591250751    -7.0333357083
  102      H      -2.2251647504    -3.1744148894    -3.4954982607
  103      H      -0.0117300785    -4.8526282721    -3.9930980539
  104      H      -4.5306812068    -6.0912317881    -8.6689771089
  105      H       0.9733835265    -7.8102760995    -6.9437748312
  106      H       1.5291525942    -6.5180657745    -4.9512500049
  107      H      -3.0796262974    -7.7842008386    -9.7223605598
  108      H      -0.8650479339    -8.3138341306    -8.8457504753
  109      H      -8.2398037148    -0.5232290860    -9.1474527265
  110      H     -10.1473341445    -4.0875133768    -7.7861423814
  111      H     -10.7150311670     0.2352120642    -8.2396528665
  112      H     -12.4571532618     1.7822894349    -9.0081852952
  113      H      -8.9758501905    -4.7163513202   -10.1402431470
  114      H      -9.6916018164    -6.1139980500   -12.0226585950
  115      C     -11.5989769424    -5.6534841264   -13.8775806073
  116      H     -12.5837223932    -3.1999108819   -13.2153445405
  117      C     -14.1182916421     1.5852068850   -11.1324225051
  118      H     -13.4161561744    -0.7749747725   -12.3001880263
  119      H      -9.3981842454    -5.2311257136    -5.8585878368
  120      H      -8.7534633134    -4.1893644208    -4.5975250357
  121      H      -7.6623309571    -5.1377311544    -5.5918580881
  122      H      -6.4124281264     0.4124689342    -8.0013568030
  123      H      -6.5459767926     0.2640841414    -6.2538789342
  124      H      -5.3862083275    -0.7219821478    -7.1338560010
  125      H     -14.6000436379     1.2676199608   -12.0566745903
  126      H     -14.8975097974     1.6774015266   -10.3736090117
  127      H     -13.7128360901     2.5839948114   -11.3018374072
  128      H     -12.4048429715    -5.2140901632   -14.4645702872
  129      H     -10.7673733942    -5.8460467383   -14.5578353655
  130      H     -11.9500210607    -6.6215245847   -13.5156854061
  131      H       1.7846477068     3.6758406031     4.5282039167
  132      H       0.0648098174     3.9968534536     4.7003215347
  133      H       0.7562608473     2.5299840555     5.3757281108
  134      H       5.6734752247     2.2433086708    -1.5509880434
  135      H       5.6198530942     0.8841986778    -2.6647958612
  136      H       5.0306433687     2.4585030552    -3.1728347532
 ----------------------------------------------------------------

    6   -3082.4600530597      8.93e-09  Convergence criterion met
 Total energy in the final basis set =    -3082.4600530597
 Final energy is   -3082.46005305975
 **  OPTIMIZATION CONVERGED  **

                    Orbital Energies (a.u.)
 --------------------------------------------------------------

 Alpha MOs
 -- Occupied --
-14.685 -14.683 -10.491 -10.490 -10.478 -10.478 -10.477 -10.477
-10.469 -10.469 -10.469 -10.468 -10.468 -10.468 -10.468 -10.468
-10.467 -10.467 -10.466 -10.466 -10.466 -10.466 -10.465 -10.465
-10.464 -10.463 -10.463 -10.463 -10.463 -10.463 -10.463 -10.462
-10.461 -10.461 -10.461 -10.460 -10.459 -10.458 -10.450 -10.450
-10.447 -10.447 -10.446 -10.446 -10.445 -10.445 -10.444 -10.444
-10.443 -10.443 -10.441 -10.441 -10.441 -10.441 -10.441 -10.441
-10.441 -10.440 -10.440 -10.439 -10.439 -10.439 -10.439 -10.439
-10.439 -10.439 -10.439 -10.438 -10.437 -10.437 -10.435 -10.434
-10.431 -10.431 -10.428 -10.428 -10.427 -10.427  -6.957  -6.955
 -1.105  -1.104  -1.020  -1.020  -0.976  -0.975  -0.967  -0.964
 -0.949  -0.949  -0.947  -0.946  -0.937  -0.937  -0.915  -0.906
 -0.892  -0.891  -0.882  -0.882  -0.862  -0.862  -0.861  -0.859
 -0.852  -0.850  -0.850  -0.850  -0.834  -0.833  -0.826  -0.818
 -0.817  -0.810  -0.809  -0.809  -0.781  -0.781  -0.777  -0.776
 -0.766  -0.765  -0.762  -0.760  -0.740  -0.733  -0.731  -0.725
 -0.713  -0.712  -0.697  -0.694  -0.691  -0.684  -0.675  -0.670
 -0.661  -0.660  -0.656  -0.656  -0.654  -0.653  -0.643  -0.642
 -0.640  -0.638  -0.601  -0.600  -0.596  -0.594  -0.592  -0.592
 -0.588  -0.584  -0.583  -0.580  -0.579  -0.559  -0.556  -0.556
 -0.554  -0.549  -0.540  -0.538  -0.533  -0.533  -0.530  -0.526
 -0.518  -0.514  -0.508  -0.507  -0.507  -0.504  -0.501  -0.497
 -0.496  -0.496  -0.495  -0.494  -0.493  -0.491  -0.491  -0.488
 -0.488  -0.487  -0.486  -0.485  -0.482  -0.480  -0.479  -0.479
 -0.477  -0.475  -0.473  -0.473  -0.472  -0.471  -0.471  -0.469
 -0.469  -0.468  -0.466  -0.466  -0.465  -0.460  -0.451  -0.448
 -0.446  -0.445  -0.442  -0.436  -0.436  -0.432  -0.430  -0.429
 -0.428  -0.428  -0.428  -0.418  -0.415  -0.415  -0.410  -0.409
 -0.406  -0.405  -0.402  -0.399  -0.398  -0.398  -0.398  -0.398
 -0.397  -0.396  -0.395  -0.394  -0.387  -0.387  -0.386  -0.382
 -0.381  -0.375  -0.366  -0.365  -0.363  -0.356  -0.353  -0.347
 -0.324  -0.321  -0.320  -0.318  -0.299  -0.298  -0.289  -0.289
 -0.287  -0.284  -0.284  -0.283  -0.282  -0.266  -0.261  -0.260
 -0.245  -0.244  -0.228  -0.227

          Ground-State Mulliken Net Atomic Charges

     Atom                 Charge (a.u.)
  ----------------------------------------
      1 C                     0.110574
      2 C                     0.324053
      3 N                    -0.741168
      4 C                     0.323892
      5 C                     0.115144
      6 C                    -0.404886
      7 C                     0.121820
      8 C                    -0.278025
      9 C                    -0.264030
     10 C                    -0.402541
     11 C                     0.121308
     12 C                    -0.279931
     13 C                    -0.264253
     14 C                     0.326437
     15 C                    -0.359973
     16 C                     0.046796
     17 C                    -0.206679
     18 C                     0.060874
     19 C                    -0.348664
     20 B                     0.692587
     21 C                    -0.152618
     22 C                    -0.385738
     23 C                     0.085881
     24 C                     0.110040
     25 C                    -0.392121
     26 C                    -0.146125
     27 C                     0.198122
     28 C                    -0.061038
     29 C                     0.196024
     30 C                     0.251692
     31 C                    -0.335947
     32 C                    -0.203354
     33 C                    -0.385241
     34 C                    -0.376599
     35 C                    -0.205504
     36 C                    -0.331809
     37 B                     0.692106
     38 C                    -0.152777
     39 C                    -0.394988
     40 C                     0.110949
     41 C                     0.083894
     42 C                    -0.380184
     43 C                    -0.148725
     44 C                     0.196112
     45 C                    -0.060791
     46 C                     0.198327
     47 C                     0.252656
     48 C                    -0.331523
     49 C                    -0.206447
     50 C                    -0.376993
     51 C                    -0.385969
     52 C                    -0.202598
     53 C                    -0.336502
     54 C                    -0.768767
     55 C                    -0.753870
     56 C                    -0.196963
     57 C                     0.061182
     58 C                    -0.345798
     59 C                     0.315714
     60 C                    -0.351407
     61 C                     0.042807
     62 N                    -0.735695
     63 C                     0.320911
     64 C                     0.120939
     65 C                     0.118496
     66 C                     0.319294
     67 C                    -0.408330
     68 C                     0.121541
     69 C                    -0.279247
     70 C                    -0.264298
     71 C                    -0.408894
     72 C                     0.121363
     73 C                    -0.279874
     74 C                    -0.265322
     75 C                    -0.753157
     76 C                    -0.770826
     77 H                     0.230361
     78 H                     0.206579
     79 H                     0.236187
     80 H                     0.208610
     81 C                    -0.708319
     82 H                     0.196611
     83 C                    -0.708422
     84 H                     0.196883
     85 H                     0.238697
     86 H                     0.233283
     87 H                     0.240395
     88 H                     0.242354
     89 H                     0.244202
     90 H                     0.245747
     91 H                     0.250506
     92 H                     0.249984
     93 H                     0.224183
     94 H                     0.231338
     95 H                     0.221655
     96 H                     0.218370
     97 H                     0.229561
     98 H                     0.221915
     99 H                     0.227963
    100 H                     0.222245
    101 H                     0.226067
    102 H                     0.228270
    103 H                     0.221266
    104 H                     0.217941
    105 H                     0.222296
    106 H                     0.229084
    107 H                     0.228329
    108 H                     0.221931
    109 H                     0.236741
    110 H                     0.236311
    111 H                     0.232758
    112 H                     0.208381
    113 H                     0.230494
    114 H                     0.206867
    115 C                    -0.708544
    116 H                     0.196292
    117 C                    -0.708583
    118 H                     0.196850
    119 H                     0.240610
    120 H                     0.245504
    121 H                     0.243153
    122 H                     0.245051
    123 H                     0.248532
    124 H                     0.248835
    125 H                     0.225285
    126 H                     0.228803
    127 H                     0.228655
    128 H                     0.225461
    129 H                     0.228934
    130 H                     0.228259
    131 H                     0.225272
    132 H                     0.227276
    133 H                     0.229274
    134 H                     0.225116
    135 H                     0.227441
    136 H                     0.229556
  ----------------------------------------
  Sum of atomic charges =    -0.000000

                    Cartesian Multipole Moments
 -----------------------------------------------------------------
    Charge (ESU x 10^10)
                -0.0000
    Dipole Moment (Debye)
         X      -0.7595      Y      -1.3369      Z       0.8110
       Tot       1.7384
    Quadrupole Moments (Debye-Ang)
        XX    -425.0624     XY     -15.3408     YY    -432.0949
        XZ     -19.9521     YZ      27.8563     ZZ    -448.8957

 Total job time:  36394.37s(wall), 278376.86s(cpu)
        *  Thank you very much for using Q-Chem.  Have a nice day.  *
