 Q-Chem 5.1, Q-Chem, Inc., Pleasanton, CA (2018)
 Q-Chem 5.1.1 for Intel X86 EM64T Linux

User input:
--------------------------------------------------------------
$rem
threads 8
jobtype	sp
method PBEh-3c
basis def2-mSVP
mem_static	1024
mem_total	14000
sym_ignore	true
cis_n_roots             6
cis_singlets            true
cis_triplets		true
rpa                     false
calc_soc 		true
cis_moments             true
cis_relaxed_density	true
$end

$molecule
read gsopt.mol
$end

--------------------------------------------------------------

             Standard Nuclear Orientation (Angstroms)
    I     Atom           X                Y                Z
 ----------------------------------------------------------------
    1      N       0.0000000000     0.0000000000     0.0000000000
    2      C       0.0000000000     0.0000000000     1.3791240000
    3      C       1.3103457695     0.0000000000    -0.4415189494
    4      C       1.8213050063    -0.0591221179    -1.7315433281
    5      H       1.1728350049    -0.0823323041    -2.5971931018
    6      C       3.1951818991    -0.0999408802    -1.8761873374
    7      H       3.6093772643    -0.1478477191    -2.8765655502
    8      C      -1.0678209002     0.0036031031     2.2708917729
    9      H      -2.0937727642     0.0135943053     1.9277438463
   10      C      -0.7794275241    -0.0077655135     3.6217280956
   11      H      -1.6010013365    -0.0097857370     4.3289598767
   12      C       1.3240478729     0.0032441165     1.8387847162
   13      C       1.5828225834    -0.0088269661     3.2074467846
   14      H       2.6058312937    -0.0133515708     3.5665194633
   15      C       0.5358183097    -0.0192406106     4.1122323584
   16      C       2.1630501145     0.0049598654     0.6719774110
   17      C       3.5415991170    -0.0361498281     0.4957286554
   18      H       4.1982610420    -0.0380759844     1.3587311608
   19      C       4.0726296308    -0.0881652671    -0.7804802676
   20      C      -1.1418731949    -0.0348599728    -0.8203267910
   21      C      -1.3509487759     0.9791397041    -1.7413683307
   22      H      -0.6488907422     1.8032227332    -1.7896764870
   23      C      -2.4472321667     0.9403873365    -2.5901252872
   24      C      -2.0491666911    -1.0789617567    -0.7175733942
   25      H      -1.8709449831    -1.8702909653     0.0013678304
   26      C      -3.1642855564    -1.1218386682    -1.5460335139
   27      C      -3.3601772067    -0.1179667349    -2.5014997448
   28      C       5.5570101314    -0.1479770670    -1.0011102942
   29      H       6.1010250978    -0.0854801471    -0.0591279238
   30      H       5.9041901540     0.6704722500    -1.6337875736
   31      H       5.8525705566    -1.0796105919    -1.4870961270
   32      C      -2.6510116345     2.0318885354    -3.6021216091
   33      H      -1.8933038686     2.8093710340    -3.5123112598
   34      H      -3.6259562245     2.5096201487    -3.4853085219
   35      H      -2.6018176560     1.6431373058    -4.6220133289
   36      C       0.7843810907    -0.0428827791     5.5937709173
   37      H       1.8500833528    -0.0619523569     5.8195096490
   38      H       0.3365772973    -0.9215188699     6.0615024403
   39      H       0.3621748546     0.8348470870     6.0864412671
   40      C      -4.1438835570    -2.2567954662    -1.4354222434
   41      H      -3.8477055028    -2.9761316001    -0.6724836338
   42      H      -5.1425505231    -1.8982883209    -1.1771476764
   43      H      -4.2358383396    -2.8004281919    -2.3782660748
   44      B      -4.5409757510    -0.1647005813    -3.5334591926
   45      C      -5.9027747445     0.5071520823    -3.2310632789
   46      C      -6.2083600545     0.9206505735    -1.9346615874
   47      H      -5.4780210722     0.7947667261    -1.1419708104
   48      C      -7.4445089737     1.4751940062    -1.6675540624
   49      C      -8.3840655698     1.6727310982    -2.7040826588
   50      C      -8.0651012783     1.3126724012    -4.0021528787
   51      H      -8.7697880785     1.4901879552    -4.8066775487
   52      C      -6.8349473764     0.7058701714    -4.2752623755
   53      C      -8.0394131326     1.9189783397    -0.4104853057
   54      C      -7.6315785209     1.9466710128     0.8974258597
   55      H      -6.6497867889     1.6034516089     1.2000576687
   56      C      -9.3305803867     2.3740330668    -0.7296376587
   57      C     -10.2382253517     2.8507525355     0.2097199567
   58      C      -9.5925797328     2.2503909657    -2.1072803642
   59      C     -10.8256402134     2.6287111778    -2.5663525384
   60      H     -11.0954805910     2.5518156861    -3.6119397946
   61      C      -8.5309315873     2.4345778239     1.8737917944
   62      H      -8.2112671282     2.4565769551     2.9074768659
   63      C      -9.7941701933     2.8743913901     1.5544987649
   64      H     -10.4520981115     3.2345491333     2.3358556182
   65      C     -11.5021328531     3.2392970780    -0.2938201051
   66      H     -12.2607958446     3.6203910004     0.3786506015
   67      C     -11.7710081073     3.1262340302    -1.6375299305
   68      H     -12.7446218825     3.4237633502    -2.0038051050
   69      C      -4.3073680485    -0.8434861624    -4.9091329900
   70      C      -3.1729274360    -1.6265310010    -5.1163393754
   71      H      -2.4560474046    -1.7685741933    -4.3146306719
   72      C      -2.9647527654    -2.2156856774    -6.3468879867
   73      C      -3.8646700599    -2.0018493171    -7.4152744862
   74      C      -4.9748448600    -1.1956962640    -7.2253965954
   75      H      -5.6569304243    -0.9961723874    -8.0442503957
   76      C      -5.2185139644    -0.6286528614    -5.9693697533
   77      C      -1.8865027880    -3.0816324120    -6.8102647092
   78      C      -0.7624203720    -3.6177139491    -6.2377865457
   79      H      -0.4985386349    -3.4294853754    -5.2040958334
   80      C      -2.1680238508    -3.3682382563    -8.1563582002
   81      C      -1.3671943288    -4.1727258059    -8.9592595949
   82      C      -3.3556013805    -2.7394381638    -8.5775721817
   83      C      -3.7571170407    -2.9272875594    -9.8730018246
   84      H      -4.6587713066    -2.4734648177   -10.2641963216
   85      C       0.0701454432    -4.4405570489    -7.0308039518
   86      H       0.9581405181    -4.8654673325    -6.5810838600
   87      C      -0.2110723012    -4.7164803367    -8.3483876190
   88      H       0.4550042901    -5.3523452796    -8.9186082076
   89      C      -1.8070160257    -4.3483481676   -10.2919050872
   90      H      -1.2335832349    -4.9607556428   -10.9768446596
   91      C      -2.9637496732    -3.7398133852   -10.7187580337
   92      H      -3.2847025835    -3.8846162456   -11.7417664802
   93      B      -6.4522214051     0.2825250077    -5.7243026391
   94      C      -7.2606047618     0.8848088067    -6.9235016209
   95      C      -8.4075304057     0.2826768750    -7.4462268904
   96      C      -9.1322396882     0.9276773496    -8.4428105209
   97      H     -10.0457070762     0.4865466520    -8.8242004186
   98      C      -8.7077432292     2.1530588661    -8.9336851684
   99      C      -7.5459514645     2.7327936841    -8.4424401788
  100      H      -7.2094660885     3.6800685978    -8.8470008019
  101      C      -6.8248935164     2.1145345339    -7.4323689873
  102      N      -9.4571136360     2.8258695216    -9.9168609665
  103      C      -9.9583440285     4.1041544072    -9.7905127831
  104      C      -9.6871673893     2.3920131868   -11.2060957455
  105      C      -9.2994852065     1.2027557385   -11.8086010978
  106      H      -8.7584896659     0.4418497759   -11.2612199188
  107      C      -9.6136757235     1.0334553458   -13.1418165049
  108      H      -9.3162181395     0.1157236838   -13.6357899192
  109      C      -9.9445305735     4.9421957664    -8.6812765894
  110      H      -9.5074631352     4.6302907291    -7.7415508832
  111      C     -10.5047627138     6.1951694517    -8.8218297323
  112      H     -10.4992407576     6.8677507774    -7.9718211343
  113      C     -10.5346383874     4.4993763855   -11.0066504382
  114      C     -11.0936708527     5.7701414598   -11.1129370507
  115      H     -11.5357268171     6.0918530215   -12.0486118784
  116      C     -11.0785447076     6.6293308233   -10.0270987664
  117      C     -10.3595490504     3.3971188156   -11.9183621597
  118      C     -10.6617029184     3.1933424488   -13.2612271152
  119      H     -11.1721163519     3.9651438496   -13.8253326764
  120      C     -10.2948086075     2.0117382928   -13.8828449463
  121      C     -10.6072638690     1.7644153650   -15.3306992006
  122      H     -11.0476250132     2.6431355408   -15.8006106675
  123      H      -9.7098318686     1.5065396787   -15.8953467259
  124      H     -11.3132009270     0.9408082058   -15.4536000685
  125      C     -11.6536307300     8.0135425400   -10.1197441429
  126      H     -12.1304043200     8.1851110137   -11.0840674157
  127      H     -12.4044959566     8.1891469526    -9.3475535150
  128      H     -10.8820189397     8.7759728286    -9.9967104458
  129      C      -8.8646239994    -1.0427478479    -6.9024640178
  130      H      -9.7729132063    -1.3917675242    -7.3920386595
  131      H      -8.1019964824    -1.8132510155    -7.0360841967
  132      H      -9.0703511497    -0.9872101209    -5.8309574613
  133      C      -5.5845409034     2.7627679276    -6.8811901429
  134      H      -5.3705317090     3.7090921950    -7.3766497639
  135      H      -4.7080906970     2.1226588630    -7.0041567033
  136      H      -5.6826836365     2.9695445739    -5.8126165657
 ----------------------------------------------------------------

   14   -3082.4597537899      8.92e-09  Convergence criterion met
 Total energy in the final basis set =    -3082.4597537899

         TDDFT/TDA Excitation Energies
 ---------------------------------------------------

 Excited state   1: excitation energy (eV) =    2.3642
 Total energy for state  1:                 -3082.37286972 au
    Multiplicity: Triplet
    Trans. Mom.:  0.0000 X   0.0000 Y   0.0000 Z
    Strength   :     0.0000000000
    D(258) --> V(  2) amplitude =  0.2737
    D(263) --> V(  1) amplitude =  0.8622
    D(264) --> V(  1) amplitude = -0.2765

 Excited state   2: excitation energy (eV) =    2.5061
 Total energy for state  2:                 -3082.36765644 au
    Multiplicity: Triplet
    Trans. Mom.:  0.0000 X   0.0000 Y   0.0000 Z
    Strength   :     0.0000000000
    D(262) --> V(  2) amplitude = -0.5071
    D(263) --> V(  1) amplitude =  0.2513
    D(264) --> V(  1) amplitude =  0.7281
    D(264) --> V(  4) amplitude = -0.2244

 Excited state   3: excitation energy (eV) =    2.5529
 Total energy for state  3:                 -3082.36593585 au
    Multiplicity: Triplet
    Trans. Mom.:  0.0000 X   0.0000 Y   0.0000 Z
    Strength   :     0.0000000000
    D(262) --> V(  1) amplitude = -0.7132
    D(262) --> V(  4) amplitude =  0.2583
    D(264) --> V(  2) amplitude =  0.5596

 Excited state   4: excitation energy (eV) =    2.7789
 Total energy for state  4:                 -3082.35763083 au
    Multiplicity: Triplet
    Trans. Mom.:  0.0000 X   0.0000 Y   0.0000 Z
    Strength   :     0.0000000000
    D(258) --> V(  1) amplitude = -0.6915
    D(263) --> V(  2) amplitude = -0.5542

 Excited state   5: excitation energy (eV) =    2.8062
 Total energy for state  5:                 -3082.35662795 au
    Multiplicity: Triplet
    Trans. Mom.:  0.0000 X   0.0000 Y   0.0000 Z
    Strength   :     0.0000000000
    D(267) --> V(  1) amplitude =  0.4575
    D(268) --> V(  1) amplitude =  0.8239

 Excited state   6: excitation energy (eV) =    2.8192
 Total energy for state  6:                 -3082.35615149 au
    Multiplicity: Singlet
    Trans. Mom.: -0.1560 X   0.1156 Y   0.1697 Z
    Strength   :     0.0045921555
    D(267) --> V(  1) amplitude =  0.3939
    D(268) --> V(  1) amplitude =  0.8838

 Excited state   7: excitation energy (eV) =    2.8426
 Total energy for state  7:                 -3082.35528981 au
    Multiplicity: Triplet
    Trans. Mom.:  0.0000 X   0.0000 Y   0.0000 Z
    Strength   :     0.0000000000
    D(267) --> V(  1) amplitude =  0.8423
    D(268) --> V(  1) amplitude = -0.4849

 Excited state   8: excitation energy (eV) =    2.8466
 Total energy for state  8:                 -3082.35514146 au
    Multiplicity: Singlet
    Trans. Mom.: -0.0604 X   0.0217 Y   0.0047 Z
    Strength   :     0.0002884790
    D(267) --> V(  1) amplitude =  0.8872
    D(268) --> V(  1) amplitude = -0.4014

 Excited state   9: excitation energy (eV) =    3.0404
 Total energy for state  9:                 -3082.34802014 au
    Multiplicity: Singlet
    Trans. Mom.: -0.0479 X   0.0549 Y   0.0481 Z
    Strength   :     0.0005670275
    D(263) --> V(  1) amplitude = -0.9226
    D(264) --> V(  1) amplitude =  0.2601

 Excited state  10: excitation energy (eV) =    3.3228
 Total energy for state 10:                 -3082.33764148 au
    Multiplicity: Singlet
    Trans. Mom.: -2.0213 X   1.5950 Y   2.0647 Z
    Strength   :     0.8867476157
    D(263) --> V(  1) amplitude =  0.2565
    D(264) --> V(  1) amplitude =  0.9076

 Excited state  11: excitation energy (eV) =    3.4273
 Total energy for state 11:                 -3082.33380208 au
    Multiplicity: Singlet
    Trans. Mom.: -0.0225 X   0.0258 Y   0.0279 Z
    Strength   :     0.0001638718
    D(266) --> V(  1) amplitude =  0.9985

 Excited state  12: excitation energy (eV) =    3.4362
 Total energy for state 12:                 -3082.33347492 au
    Multiplicity: Singlet
    Trans. Mom.: -0.0099 X  -0.0004 Y   0.0089 Z
    Strength   :     0.0000150283
    D(265) --> V(  1) amplitude =  0.9988

 ---------------------------------------------------

                    Orbital Energies (a.u.)
 --------------------------------------------------------------

 Alpha MOs
 -- Occupied --
-14.685 -14.683 -10.491 -10.490 -10.478 -10.478 -10.477 -10.477
-10.469 -10.469 -10.469 -10.468 -10.468 -10.468 -10.468 -10.468
-10.467 -10.467 -10.466 -10.466 -10.466 -10.466 -10.465 -10.465
-10.464 -10.463 -10.463 -10.463 -10.463 -10.463 -10.463 -10.462
-10.461 -10.461 -10.461 -10.460 -10.459 -10.458 -10.450 -10.450
-10.447 -10.447 -10.446 -10.446 -10.445 -10.445 -10.444 -10.444
-10.443 -10.442 -10.441 -10.441 -10.441 -10.441 -10.441 -10.441
-10.441 -10.441 -10.440 -10.439 -10.439 -10.439 -10.439 -10.439
-10.439 -10.439 -10.439 -10.438 -10.437 -10.436 -10.434 -10.434
-10.431 -10.431 -10.428 -10.428 -10.427 -10.427  -6.957  -6.955
 -1.105  -1.104  -1.020  -1.020  -0.976  -0.975  -0.967  -0.964
 -0.949  -0.949  -0.946  -0.946  -0.937  -0.937  -0.915  -0.906
 -0.892  -0.891  -0.882  -0.882  -0.862  -0.862  -0.861  -0.859
 -0.852  -0.850  -0.850  -0.850  -0.834  -0.833  -0.826  -0.818
 -0.817  -0.810  -0.809  -0.809  -0.781  -0.781  -0.777  -0.776
 -0.766  -0.765  -0.762  -0.760  -0.740  -0.733  -0.731  -0.725
 -0.713  -0.712  -0.697  -0.694  -0.691  -0.684  -0.675  -0.670
 -0.661  -0.660  -0.656  -0.656  -0.654  -0.653  -0.643  -0.642
 -0.640  -0.638  -0.601  -0.600  -0.596  -0.594  -0.592  -0.592
 -0.588  -0.584  -0.583  -0.580  -0.579  -0.559  -0.556  -0.556
 -0.554  -0.549  -0.540  -0.538  -0.533  -0.533  -0.530  -0.526
 -0.518  -0.514  -0.508  -0.507  -0.507  -0.504  -0.501  -0.497
 -0.496  -0.496  -0.495  -0.494  -0.493  -0.491  -0.491  -0.488
 -0.488  -0.487  -0.486  -0.485  -0.482  -0.480  -0.479  -0.479
 -0.477  -0.475  -0.473  -0.473  -0.472  -0.471  -0.471  -0.469
 -0.469  -0.468  -0.466  -0.466  -0.465  -0.460  -0.451  -0.448
 -0.446  -0.445  -0.442  -0.436  -0.436  -0.432  -0.430  -0.429
 -0.428  -0.428  -0.428  -0.418  -0.415  -0.415  -0.410  -0.409
 -0.406  -0.405  -0.402  -0.399  -0.398  -0.398  -0.398  -0.398
 -0.397  -0.396  -0.395  -0.394  -0.387  -0.387  -0.386  -0.382
 -0.381  -0.375  -0.366  -0.365  -0.363  -0.356  -0.353  -0.347
 -0.324  -0.321  -0.320  -0.318  -0.299  -0.298  -0.289  -0.289
 -0.287  -0.284  -0.284  -0.283  -0.282  -0.266  -0.261  -0.260
 -0.245  -0.244  -0.228  -0.227

          Ground-State Mulliken Net Atomic Charges

     Atom                 Charge (a.u.)
  ----------------------------------------
      1 N                    -0.741107
      2 C                     0.324309
      3 C                     0.324449
      4 C                    -0.264679
      5 H                     0.232746
      6 C                    -0.279606
      7 H                     0.208246
      8 C                    -0.264314
      9 H                     0.230398
     10 C                    -0.277707
     11 H                     0.206816
     12 C                     0.115274
     13 C                    -0.405341
     14 H                     0.196267
     15 C                     0.122145
     16 C                     0.110726
     17 C                    -0.403119
     18 H                     0.196820
     19 C                     0.121601
     20 C                     0.326710
     21 C                    -0.360045
     22 H                     0.236710
     23 C                     0.046963
     24 C                    -0.348751
     25 H                     0.236252
     26 C                     0.060880
     27 C                    -0.206697
     28 C                    -0.708749
     29 H                     0.225319
     30 H                     0.228681
     31 H                     0.228818
     32 C                    -0.768645
     33 H                     0.245029
     34 H                     0.248865
     35 H                     0.248479
     36 C                    -0.708882
     37 H                     0.225530
     38 H                     0.228312
     39 H                     0.228985
     40 C                    -0.753835
     41 H                     0.240597
     42 H                     0.243128
     43 H                     0.245499
     44 B                     0.692428
     45 C                    -0.152418
     46 C                    -0.385604
     47 H                     0.226132
     48 C                     0.085895
     49 C                     0.109698
     50 C                    -0.391967
     51 H                     0.228351
     52 C                    -0.146108
     53 C                     0.195812
     54 C                    -0.376553
     55 H                     0.217862
     56 C                    -0.061109
     57 C                     0.251780
     58 C                     0.198081
     59 C                    -0.385374
     60 H                     0.221296
     61 C                    -0.205446
     62 H                     0.228347
     63 C                    -0.331826
     64 H                     0.221946
     65 C                    -0.335861
     66 H                     0.222303
     67 C                    -0.203289
     68 H                     0.229065
     69 C                    -0.148684
     70 C                    -0.380221
     71 H                     0.231408
     72 C                     0.083989
     73 C                     0.110835
     74 C                    -0.394701
     75 H                     0.224112
     76 C                    -0.152517
     77 C                     0.196048
     78 C                    -0.377086
     79 H                     0.221635
     80 C                    -0.060690
     81 C                     0.252826
     82 C                     0.197964
     83 C                    -0.385920
     84 H                     0.218335
     85 C                    -0.206428
     86 H                     0.229532
     87 C                    -0.331576
     88 H                     0.221935
     89 C                    -0.336473
     90 H                     0.222254
     91 C                    -0.202491
     92 H                     0.227959
     93 B                     0.691108
     94 C                    -0.196788
     95 C                     0.061214
     96 C                    -0.345893
     97 H                     0.233271
     98 C                     0.315646
     99 C                    -0.351540
    100 H                     0.238664
    101 C                     0.042963
    102 N                    -0.735558
    103 C                     0.319296
    104 C                     0.321175
    105 C                    -0.264458
    106 H                     0.230385
    107 C                    -0.278993
    108 H                     0.206539
    109 C                    -0.265390
    110 H                     0.236024
    111 C                    -0.279843
    112 H                     0.208606
    113 C                     0.118888
    114 C                    -0.409399
    115 H                     0.196499
    116 C                     0.121611
    117 C                     0.120933
    118 C                    -0.408363
    119 H                     0.196890
    120 C                     0.121442
    121 C                    -0.708320
    122 H                     0.225242
    123 H                     0.227246
    124 H                     0.229242
    125 C                    -0.708369
    126 H                     0.225108
    127 H                     0.227440
    128 H                     0.229567
    129 C                    -0.753144
    130 H                     0.240392
    131 H                     0.242389
    132 H                     0.244204
    133 C                    -0.770588
    134 H                     0.245682
    135 H                     0.250435
    136 H                     0.249982
  ----------------------------------------
  Sum of atomic charges =    -0.000000

                    Cartesian Multipole Moments
 -----------------------------------------------------------------
    Charge (ESU x 10^10)
                -0.0000
    Dipole Moment (Debye)
         X      -0.5495      Y      -1.5814      Z       0.4695
       Tot       1.7387
    Quadrupole Moments (Debye-Ang)
        XX    -432.6717     XY     -10.8624     YY    -449.7709
        XZ     -24.1784     YZ      27.8103     ZZ    -429.3661

 Total job time:  18397.22s(wall), 66086.06s(cpu)
        *  Thank you very much for using Q-Chem.  Have a nice day.  *
