 Q-Chem 5.1, Q-Chem, Inc., Pleasanton, CA (2018)
 Q-Chem 5.1.1 for Intel X86 EM64T Linux

User input:
--------------------------------------------------------------
$rem
threads 8
jobtype	opt
method PBEh-3c
basis def2-mSVP
mem_static	1024
mem_total	14000
sym_ignore	true
cis_n_roots             2
cis_singlets            true
cis_triplets		false
rpa                     false
cis_state_deriv         1
$end

$molecule
read s1_preopt.mol
$end

--------------------------------------------------------------

   14   -3082.4542176077      9.58e-09  Convergence criterion met
 Total energy in the final basis set =    -3082.4542176077
    8   -3082.4542300571      5.31e-09  Convergence criterion met
 Total energy in the final basis set =    -3082.4542300571
    8   -3082.4542504313      7.74e-09  Convergence criterion met
 Total energy in the final basis set =    -3082.4542504313
    8   -3082.4542797243      8.13e-09  Convergence criterion met
 Total energy in the final basis set =    -3082.4542797243
    8   -3082.4542844769      6.32e-09  Convergence criterion met
 Total energy in the final basis set =    -3082.4542844769
    8   -3082.4542991217      4.96e-09  Convergence criterion met
 Total energy in the final basis set =    -3082.4542991217

             Standard Nuclear Orientation (Angstroms)
    I     Atom           X                Y                Z
 ----------------------------------------------------------------
    1      C     -12.1754088288    -1.8592182346   -10.8475516182
    2      C     -11.3081330311    -1.4558694150    -9.8206324667
    3      N     -10.3414562080    -2.4246787902    -9.6446584586
    4      C     -10.5805245270    -3.4500713982   -10.5307290353
    5      C     -11.7099084689    -3.1398284399   -11.3026194557
    6      C     -12.1609896139    -4.0410680588   -12.2643721209
    7      C     -11.4949478274    -5.2380397124   -12.4606958083
    8      C     -10.3627794938    -5.5169069752   -11.6782602268
    9      C      -9.8914571003    -4.6445521342   -10.7168889637
   10      C     -13.2676861376    -1.0683311059   -11.1884585375
   11      C     -13.5008662753     0.1143072814   -10.5103799345
   12      C     -12.6205325122     0.4890698688    -9.4824318243
   13      C     -11.5270192187    -0.2751003192    -9.1224282492
   14      C      -9.3535412226    -2.4163836943    -8.6381000778
   15      C      -8.3800012224    -1.4321623910    -8.6449569704
   16      C      -7.4447419638    -1.3651029373    -7.6210807509
   17      C      -7.4691046062    -2.3049952346    -6.5817038264
   18      C      -8.4299449878    -3.3236480866    -6.6103424379
   19      C      -9.3720920551    -3.3691196784    -7.6317529016
   20      B      -6.4777515660    -2.1182203963    -5.3664428376
   21      C      -5.0744249013    -2.7308659739    -5.3616868162
   22      C      -4.6885082293    -3.6264832664    -6.3705819690
   23      C      -3.4427662262    -4.2058375517    -6.3554815744
   24      C      -2.5129938001    -3.8908606446    -5.3213074230
   25      C      -2.8640338441    -2.9945518815    -4.3405634755
   26      C      -4.1451512107    -2.4011703081    -4.3263825729
   27      C      -1.3050029510    -4.6827279928    -5.5543941318
   28      C      -1.5464392021    -5.4407858563    -6.7188410989
   29      C      -2.8307292286    -5.1858417431    -7.2400433811
   30      C      -0.6522021000    -6.3549411590    -7.2693569147
   31      C       0.5802263644    -6.5023376004    -6.5904548716
   32      C       0.8289635401    -5.7695942486    -5.4527163361
   33      C      -0.1032923448    -4.8537660789    -4.9145719152
   34      C      -3.2327214068    -5.8669631231    -8.3632789210
   35      C      -2.3396950679    -6.7922509793    -8.9468554950
   36      C      -1.0886445400    -7.0399376340    -8.4300342569
   37      B      -4.5682786193    -1.4065383206    -3.2432511283
   38      C      -5.9957006346    -0.8764519079    -3.1593727484
   39      C      -6.4272801013    -0.0415028145    -2.1050871863
   40      C      -7.7273818830     0.4028287896    -2.0480485966
   41      C      -8.6418731256     0.0316354100    -3.0769675666
   42      C      -8.2357895375    -0.7592247825    -4.1230901313
   43      C      -6.9187637283    -1.2370881587    -4.1893682503
   44      C      -9.9382121002     0.6184563106    -2.7767121918
   45      C      -9.7800346646     1.3299081326    -1.5720248179
   46      C      -8.4588861429     1.2325911922    -1.0873477272
   47      C     -10.8081022709     2.0276390772    -0.9437421742
   48      C     -12.0708749980     2.0003997406    -1.5844665314
   49      C     -12.2313993347     1.3076755813    -2.7624881335
   50      C     -11.1728952846     0.6047992736    -3.3787417303
   51      C      -8.1605679871     1.8744013888     0.0879998376
   52      C      -9.1822395047     2.5942847359     0.7491625608
   53      C     -10.4671006714     2.6782785146     0.2647109233
   54      C      -6.4161488427    -0.2699533647    -7.6281805308
   55      C      -8.4698570581    -4.3480199686    -5.5114574481
   56      C      -3.4376765746    -0.8552271323    -2.2871445140
   57      C      -3.0993177866    -1.4934282543    -1.0735450000
   58      C      -2.0065452349    -1.0646269427    -0.3464908713
   59      C      -1.2257389999    -0.0099888627    -0.8303004504
   60      C      -1.5815100363     0.6630879126    -2.0039282349
   61      C      -2.6882421874     0.2628377496    -2.7191066901
   62      N      -0.0632735450     0.3662367336    -0.1693069001
   63      C       0.0758836681     0.6026583605     1.1865507142
   64      C       1.3910816775     1.0188287570     1.4446672210
   65      C       2.0832096097     1.0215562843     0.1687928310
   66      C       1.1460448526     0.6103391014    -0.7905597589
   67      C       1.7497671007     1.3778459881     2.7262583915
   68      C       0.8002119118     1.3250901489     3.7502477137
   69      C      -0.5095250549     0.9299738672     3.4532369655
   70      C      -0.8986284983     0.5782370243     2.1758102948
   71      C       3.3734571580     1.3102421065    -0.2250985649
   72      C       3.7333101897     1.1796739629    -1.5700284195
   73      C       2.7845701695     0.7257377312    -2.4943718648
   74      C       1.4898076075     0.4224229414    -2.1266575701
   75      C      -3.9056552237    -2.6741971632    -0.6285833435
   76      C      -3.0941592643     0.9919656396    -3.9630336736
   77      H      -1.9256100805     0.3193841373     1.9598335252
   78      H      -1.2470253406     0.9168210614     4.2452762472
   79      H       0.7844796575     0.0414004354    -2.8515393962
   80      H       3.0771955217     0.5965756676    -3.5284218346
   81      C       5.1203653637     1.4995911713    -2.0317242291
   82      H       4.1118759488     1.6306209246     0.4986167778
   83      C       1.1596162861     1.7114002483     5.1508701980
   84      H       2.7554375471     1.7157243089     2.9417312131
   85      H      -1.0115666975     1.5275438678    -2.3210476409
   86      H      -1.6977709484    -1.6021462577     0.5412468661
   87      H      -3.5601056570    -3.0758187772     0.3235380022
   88      H      -4.9580316535    -2.4055327677    -0.5270382763
   89      H      -3.8618353448    -3.4711929932    -1.3721057836
   90      H      -2.4481503167     1.8463920171    -4.1627965473
   91      H      -4.1217389244     1.3479818337    -3.8869358829
   92      H      -3.0599743868     0.3260491238    -4.8264922273
   93      H      -5.7273448004     0.2442180382    -1.3257481934
   94      H      -8.9385218550    -1.0234298563    -4.9069189703
   95      H     -11.3519398867     0.0701543068    -4.3037842130
   96      H      -7.1680864679     1.8412876388     0.5196777862
   97      H     -13.2046664954     1.2962249606    -3.2368790782
   98      H     -12.9124884919     2.5228568706    -1.1462961412
   99      H      -8.9402809622     3.0980652094     1.6763372093
  100      H     -11.2162371411     3.2407012689     0.8086073617
  101      H      -5.3931242569    -3.8662421427    -7.1614334271
  102      H      -2.1487256640    -2.7575719012    -3.5591850793
  103      H       0.1404790245    -4.3152132566    -4.0072605586
  104      H      -4.2109654553    -5.7157674799    -8.8029570019
  105      H       1.3239672672    -7.1974603053    -6.9605360022
  106      H       1.7745053246    -5.9029622848    -4.9424913059
  107      H      -2.6573075298    -7.3291902892    -9.8318290353
  108      H      -0.4404292658    -7.7642275377    -8.9079366570
  109      H      -8.3621365775    -0.7109285125    -9.4540628317
  110      H     -10.1396715458    -4.1352694478    -7.6352223657
  111      H     -10.8735235157     0.0331981785    -8.3172775635
  112      H     -12.8088182174     1.4108951721    -8.9443133454
  113      H      -9.0184985389    -4.8905212691   -10.1268778837
  114      H      -9.8399655179    -6.4544145310   -11.8304965899
  115      C     -11.9586731081    -6.2293206621   -13.4903920020
  116      H     -13.0397163636    -3.8096703284   -12.8564688020
  117      C     -14.6733269441     0.9880099787   -10.8544827579
  118      H     -13.9429938653    -1.3867322394   -11.9751131262
  119      H      -9.2393578625    -5.0994622189    -5.6886070763
  120      H      -8.6745273388    -3.8828597823    -4.5450054018
  121      H      -7.5126793528    -4.8635838955    -5.4153562832
  122      H      -6.4913585093     0.3435605066    -8.5261314765
  123      H      -6.5352160346     0.3864213863    -6.7638496268
  124      H      -5.4045828850    -0.6767440012    -7.5824448695
  125      H     -15.3037666754     0.5260578371   -11.6140054539
  126      H     -15.3011035872     1.1813393184    -9.9828129006
  127      H     -14.3533745974     1.9569703580   -11.2424742004
  128      H     -12.8920244022    -5.9136656039   -13.9560058923
  129      H     -11.2230358715    -6.3542388101   -14.2873994048
  130      H     -12.1293100912    -7.2145215854   -13.0527526082
  131      H       2.2033176685     2.0077807930     5.2353092901
  132      H       0.5476729911     2.5459408076     5.4958487861
  133      H       0.9924306224     0.8833051281     5.8408920223
  134      H       5.7591912106     1.8226063307    -1.2120788688
  135      H       5.5886377550     0.6314347868    -2.4975048229
  136      H       5.1086918013     2.2954951750    -2.7778246980
 ----------------------------------------------------------------

    8   -3082.4542941370      5.57e-09  Convergence criterion met
 Total energy in the final basis set =    -3082.4542941370

         TDDFT/TDA Excitation Energies
 ---------------------------------------------------

 Excited state   1: excitation energy (eV) =    2.4340
 Total energy for state  1:                 -3082.36484675 au
    Multiplicity: Singlet
    Trans. Mom.:  0.1324 X  -0.0621 Y  -0.0458 Z
    Strength   :     0.0013995982
    D(261) --> V(  1) amplitude =  0.2236
    D(268) --> V(  1) amplitude =  0.9651

 Excited state   2: excitation energy (eV) =    2.7250
 Total energy for state  2:                 -3082.35415268 au
    Multiplicity: Singlet
    Trans. Mom.:  0.0456 X  -0.0635 Y  -0.0576 Z
    Strength   :     0.0006296374
    D(267) --> V(  1) amplitude =  0.9766

 ---------------------------------------------------

 Final energy is   -3082.36484675424
 **  OPTIMIZATION CONVERGED  **

                    Orbital Energies (a.u.)
 --------------------------------------------------------------

 Alpha MOs
 -- Occupied --
-14.684 -14.683 -10.490 -10.490 -10.479 -10.479 -10.478 -10.477
-10.470 -10.470 -10.469 -10.469 -10.469 -10.469 -10.469 -10.469
-10.468 -10.467 -10.467 -10.466 -10.466 -10.466 -10.466 -10.466
-10.465 -10.464 -10.463 -10.463 -10.463 -10.463 -10.462 -10.461
-10.461 -10.460 -10.459 -10.459 -10.458 -10.457 -10.451 -10.451
-10.447 -10.446 -10.446 -10.445 -10.444 -10.444 -10.443 -10.443
-10.443 -10.443 -10.442 -10.442 -10.442 -10.441 -10.441 -10.441
-10.441 -10.440 -10.440 -10.440 -10.440 -10.439 -10.439 -10.439
-10.439 -10.439 -10.439 -10.439 -10.435 -10.433 -10.433 -10.432
-10.431 -10.428 -10.427 -10.427 -10.427 -10.427  -6.952  -6.949
 -1.107  -1.104  -1.020  -1.019  -0.976  -0.973  -0.965  -0.963
 -0.951  -0.949  -0.946  -0.945  -0.937  -0.937  -0.913  -0.904
 -0.892  -0.891  -0.881  -0.881  -0.863  -0.862  -0.861  -0.860
 -0.852  -0.851  -0.850  -0.850  -0.834  -0.833  -0.826  -0.817
 -0.816  -0.813  -0.808  -0.808  -0.780  -0.778  -0.777  -0.775
 -0.765  -0.763  -0.761  -0.759  -0.740  -0.733  -0.732  -0.725
 -0.713  -0.713  -0.697  -0.694  -0.690  -0.684  -0.676  -0.671
 -0.662  -0.660  -0.656  -0.655  -0.653  -0.651  -0.642  -0.640
 -0.638  -0.637  -0.602  -0.600  -0.597  -0.594  -0.591  -0.590
 -0.588  -0.585  -0.583  -0.581  -0.581  -0.559  -0.556  -0.554
 -0.550  -0.549  -0.540  -0.538  -0.533  -0.532  -0.531  -0.525
 -0.518  -0.513  -0.511  -0.508  -0.507  -0.503  -0.500  -0.498
 -0.496  -0.496  -0.495  -0.494  -0.494  -0.492  -0.490  -0.488
 -0.488  -0.487  -0.485  -0.484  -0.481  -0.479  -0.478  -0.477
 -0.476  -0.473  -0.473  -0.472  -0.471  -0.471  -0.471  -0.470
 -0.469  -0.468  -0.466  -0.466  -0.465  -0.461  -0.450  -0.446
 -0.446  -0.445  -0.440  -0.437  -0.436  -0.432  -0.430  -0.430
 -0.428  -0.428  -0.427  -0.417  -0.414  -0.414  -0.411  -0.409
 -0.405  -0.404  -0.402  -0.399  -0.399  -0.398  -0.398  -0.397
 -0.396  -0.396  -0.395  -0.394  -0.388  -0.387  -0.385  -0.381
 -0.380  -0.374  -0.366  -0.365  -0.362  -0.355  -0.355  -0.343
 -0.325  -0.322  -0.320  -0.319  -0.299  -0.298  -0.288  -0.287
 -0.285  -0.285  -0.283  -0.282  -0.278  -0.266  -0.260  -0.259
 -0.248  -0.244  -0.228  -0.222

          Ground-State Mulliken Net Atomic Charges

     Atom                 Charge (a.u.)
  ----------------------------------------
      1 C                     0.113675
      2 C                     0.324462
      3 N                    -0.737340
      4 C                     0.325581
      5 C                     0.113660
      6 C                    -0.404712
      7 C                     0.121753
      8 C                    -0.278892
      9 C                    -0.264311
     10 C                    -0.403082
     11 C                     0.121686
     12 C                    -0.280663
     13 C                    -0.264229
     14 C                     0.308732
     15 C                    -0.350350
     16 C                     0.043386
     17 C                    -0.211574
     18 C                     0.050745
     19 C                    -0.335509
     20 B                     0.690952
     21 C                    -0.152876
     22 C                    -0.390548
     23 C                     0.092081
     24 C                     0.115574
     25 C                    -0.391200
     26 C                    -0.142746
     27 C                     0.200780
     28 C                    -0.065617
     29 C                     0.194149
     30 C                     0.251295
     31 C                    -0.334953
     32 C                    -0.203008
     33 C                    -0.383985
     34 C                    -0.374020
     35 C                    -0.205576
     36 C                    -0.330050
     37 B                     0.676423
     38 C                    -0.148718
     39 C                    -0.399359
     40 C                     0.115927
     41 C                     0.090916
     42 C                    -0.383115
     43 C                    -0.146629
     44 C                     0.195314
     45 C                    -0.064838
     46 C                     0.200499
     47 C                     0.251998
     48 C                    -0.329833
     49 C                    -0.206563
     50 C                    -0.375270
     51 C                    -0.384860
     52 C                    -0.202187
     53 C                    -0.335378
     54 C                    -0.763775
     55 C                    -0.753721
     56 C                    -0.220231
     57 C                     0.061843
     58 C                    -0.368622
     59 C                     0.345623
     60 C                    -0.385691
     61 C                     0.051190
     62 N                    -0.735340
     63 C                     0.321198
     64 C                     0.117557
     65 C                     0.122719
     66 C                     0.313175
     67 C                    -0.407787
     68 C                     0.113136
     69 C                    -0.274780
     70 C                    -0.269860
     71 C                    -0.410473
     72 C                     0.113354
     73 C                    -0.275700
     74 C                    -0.267526
     75 C                    -0.754452
     76 C                    -0.764903
     77 H                     0.241074
     78 H                     0.208104
     79 H                     0.247478
     80 H                     0.209531
     81 C                    -0.708409
     82 H                     0.197973
     83 C                    -0.708508
     84 H                     0.198521
     85 H                     0.251006
     86 H                     0.242394
     87 H                     0.237709
     88 H                     0.243318
     89 H                     0.246047
     90 H                     0.241368
     91 H                     0.249752
     92 H                     0.248871
     93 H                     0.226542
     94 H                     0.232629
     95 H                     0.223020
     96 H                     0.220243
     97 H                     0.229831
     98 H                     0.222555
     99 H                     0.228443
    100 H                     0.222795
    101 H                     0.226750
    102 H                     0.232067
    103 H                     0.223942
    104 H                     0.219420
    105 H                     0.222835
    106 H                     0.229826
    107 H                     0.228484
    108 H                     0.222598
    109 H                     0.234047
    110 H                     0.234747
    111 H                     0.230042
    112 H                     0.207355
    113 H                     0.229788
    114 H                     0.206806
    115 C                    -0.708400
    116 H                     0.196028
    117 C                    -0.708476
    118 H                     0.196660
    119 H                     0.239733
    120 H                     0.245892
    121 H                     0.243800
    122 H                     0.242621
    123 H                     0.248010
    124 H                     0.248621
    125 H                     0.225162
    126 H                     0.226660
    127 H                     0.229892
    128 H                     0.225140
    129 H                     0.229633
    130 H                     0.227256
    131 H                     0.225709
    132 H                     0.228712
    133 H                     0.228774
    134 H                     0.225618
    135 H                     0.228061
    136 H                     0.229366
  ----------------------------------------
  Sum of atomic charges =    -0.000000

                    Cartesian Multipole Moments
 -----------------------------------------------------------------
    Charge (ESU x 10^10)
                -0.0000
    Dipole Moment (Debye)
         X      -0.2249      Y      -0.8827      Z       0.9491
       Tot       1.3155
    Quadrupole Moments (Debye-Ang)
        XX    -424.9078     XY     -19.5885     YY    -435.3241
        XZ     -23.0020     YZ      24.8694     ZZ    -450.9442

 Total job time:  26794.65s(wall), 185459.52s(cpu)
        *  Thank you very much for using Q-Chem.  Have a nice day.  *
