 Q-Chem 5.1, Q-Chem, Inc., Pleasanton, CA (2018)
 Q-Chem 5.1.1 for Intel X86 EM64T Linux

User input:
--------------------------------------------------------------
$rem
threads 8
jobtype	sp
method PBEh-3c
basis def2-mSVP
mem_static	1024
mem_total	14000
sym_ignore	true
cis_n_roots             6
cis_singlets            true
cis_triplets		true
rpa                     false
calc_soc 		true
cis_moments             true
cis_relaxed_density	true
$end

$molecule
read s1opt.mol
$end

--------------------------------------------------------------

             Standard Nuclear Orientation (Angstroms)
    I     Atom           X                Y                Z
 ----------------------------------------------------------------
    1      N       0.0000000000     0.0000000000     0.0000000000
    2      C       0.0000000000     0.0000000000     1.3813010000
    3      C       1.3093957788     0.0000000000    -0.4461982556
    4      C       1.7819591171    -0.0963569553    -1.7486204417
    5      H       1.1135621770    -0.1507295485    -2.5963419761
    6      C       3.1510588578    -0.1512987868    -1.9203392280
    7      H       3.5482420560    -0.2232640368    -2.9245664279
    8      C      -1.1440794450    -0.0401407231    -0.7869281414
    9      C      -1.0848873329     0.0840470960     2.2499763524
   10      H      -2.1015209334     0.1603594926     1.8911553190
   11      C      -0.8123813357     0.0854283656     3.6025158500
   12      H      -1.6373406934     0.1419668444     4.3009554681
   13      C      -1.2871115816     0.8274660077    -1.8744909301
   14      H      -0.5084190081     1.5456869637    -2.0984197066
   15      C      -2.4739312760     0.8467119938    -2.5799831963
   16      C      -2.1613663271    -0.9399714522    -0.4516073976
   17      H      -2.0023865813    -1.6585662790     0.3427666669
   18      C      -3.3364826931    -0.9500073082    -1.1696167442
   19      C       4.0381613996    -0.1409791431    -0.8374334178
   20      C       3.5316830916    -0.0830946882     0.4637665624
   21      H       4.2100403124    -0.1098411057     1.3070224016
   22      C       2.1694640401    -0.0137485075     0.6627025280
   23      C       0.4962652804     0.0316233353     4.0976177540
   24      C       1.5686266877    -0.0007140825     3.2007480704
   25      H       2.5830187473    -0.0105707428     3.5783476661
   26      C       1.3245638137    -0.0112173830     1.8429730765
   27      C      -3.5278339557    -0.0208024664    -2.2176037469
   28      C       0.7271991913     0.0284522019     5.5761612646
   29      H       1.7865601035     0.0031300179     5.8238882511
   30      H       0.2967150472     0.9158175849     6.0421992880
   31      H       0.2558866515    -0.8381370527     6.0421583459
   32      C       5.5122543448    -0.2196018985    -1.0844521534
   33      H       6.0804066903    -0.2149494410    -0.1563007776
   34      H       5.8539731793     0.6226434115    -1.6875059653
   35      H       5.7699393236    -1.1296708109    -1.6278818548
   36      C      -2.6919356301     1.8225357381    -3.6947157083
   37      H      -1.8088419334     2.4297458156    -3.8913892977
   38      H      -3.5220548715     2.4911610262    -3.4627901889
   39      H      -2.9634687907     1.3022437586    -4.6142561526
   40      C      -4.4225825464    -1.9263712897    -0.8366755609
   41      H      -4.1317059134    -2.5989512959    -0.0302605302
   42      H      -4.6855001690    -2.5270211770    -1.7076242296
   43      H      -5.3308497113    -1.4020942911    -0.5360787045
   44      B      -4.9615327141     0.0734610747    -2.8748468795
   45      C      -5.3374559691    -0.7978675738    -4.0685926829
   46      C      -4.3809295453    -1.5618710836    -4.7730604214
   47      H      -3.3413810515    -1.5410707661    -4.4602948340
   48      C      -4.7496637332    -2.3214602386    -5.8584216186
   49      C      -6.1167882753    -2.3521398998    -6.2618827707
   50      C      -7.0658135413    -1.6358117755    -5.5756164920
   51      H      -8.1052734145    -1.6785101804    -5.8850089831
   52      C      -6.7064567084    -0.8410371965    -4.4772087232
   53      C      -6.2351207391    -3.2128410431    -7.4281575717
   54      C      -7.2691023968    -3.6098676689    -8.2407583127
   55      H      -8.2863687301    -3.2757835595    -8.0759460842
   56      C      -4.9370179820    -3.6822215293    -7.7057665471
   57      C      -4.6307068749    -4.5322011742    -8.7651055133
   58      C      -3.9983021172    -3.1727890560    -6.7842970630
   59      C      -2.6861485649    -3.5427687642    -6.9383250830
   60      H      -1.9117139827    -3.1888243633    -6.2694179327
   61      C      -6.9844796620    -4.4744747845    -9.3204248541
   62      H      -7.7995523921    -4.7867623115    -9.9611749088
   63      C      -5.7134613820    -4.9290768754    -9.5872955472
   64      H      -5.5416312773    -5.5890039497   -10.4288647674
   65      C      -2.3429082305    -4.4076197693    -8.0029376367
   66      H      -1.3057361548    -4.6953295197    -8.1190825131
   67      C      -3.2699509471    -4.8947188851    -8.8950938883
   68      H      -2.9578067594    -5.5536280065    -9.6961887720
   69      C      -5.9853753747     0.9836077568    -2.1930242618
   70      C      -5.6224007293     1.8863975262    -1.1698999745
   71      H      -4.5865690525     1.9580595677    -0.8532063668
   72      C      -6.5614083313     2.6979254861    -0.5798635636
   73      C      -7.9258164707     2.6088260344    -0.9844051982
   74      C      -8.3036878509     1.7246903774    -1.9658682398
   75      H      -9.3442194138     1.6571857113    -2.2694313514
   76      C      -7.3541225406     0.9085291748    -2.5992224563
   77      C      -8.6945193918     3.5825820216    -0.2239171526
   78      C     -10.0121112356     3.9699470164    -0.1910398979
   79      H     -10.7594112961     3.5059576264    -0.8230166132
   80      C      -7.7764463479     4.2377972178     0.6210001933
   81      C      -8.1204098285     5.2697976710     1.4899487463
   82      C      -6.4689346994     3.7403292274     0.4426182879
   83      C      -5.4594229878     4.3101740402     1.1767151765
   84      H      -4.4306695645     3.9869913495     1.0772361128
   85      C     -10.3884120323     5.0076469099     0.6897508135
   86      H     -11.4269479821     5.3128929058     0.7148210877
   87      C      -9.4859062178     5.6465435452     1.5088197956
   88      H      -9.8196374102     6.4424615327     2.1632727315
   89      C      -5.7774920653     5.3555389621     2.0730893013
   90      H      -4.9768933159     5.8037015147     2.6478567642
   91      C      -7.0582997591     5.8306393303     2.2375404807
   92      H      -7.2512348694     6.6389780868     2.9322861703
   93      B      -7.7786132004    -0.0475709708    -3.7174191648
   94      C      -9.2968289312    -0.3005151176    -4.0717731194
   95      C      -9.9561334959     0.4138022758    -5.0801167692
   96      C     -11.2493973128     0.0660073289    -5.4536061218
   97      H     -11.7475035533     0.5939114225    -6.2594487835
   98      C     -11.9003140398    -0.9785217303    -4.8163841880
   99      C     -11.2754763043    -1.6615682622    -3.7870425057
  100      H     -11.8084006490    -2.4578677705    -3.2800435296
  101      C      -9.9776256935    -1.3358519946    -3.4168772571
  102      N     -13.1900428451    -1.3718194527    -5.2300532636
  103      C     -14.3153744922    -0.5798169053    -5.2220438325
  104      C     -13.5031542869    -2.5763147455    -5.8260182068
  105      C     -12.6914457531    -3.6637614013    -6.1230106412
  106      H     -11.6424804066    -3.6731819712    -5.8585219849
  107      C     -13.2675043373    -4.7321025436    -6.7834146821
  108      H     -12.6469931213    -5.5866394068    -7.0273769659
  109      C     -14.4884064095     0.7162617403    -4.7461311627
  110      H     -13.6738989668     1.2638233771    -4.2906931535
  111      C     -15.7372953175     1.2903618893    -4.8805464920
  112      H     -15.8857943349     2.3019986346    -4.5200326486
  113      C     -15.3786173504    -1.2818007001    -5.8088200054
  114      C     -16.6266076472    -0.6748396566    -5.9304472358
  115      H     -17.4487973746    -1.2103094474    -6.3925722878
  116      C     -16.8185226403     0.6161177965    -5.4705620388
  117      C     -14.8571528534    -2.5635538721    -6.1947245015
  118      C     -15.4094309933    -3.6544057745    -6.8579139001
  119      H     -16.4533366711    -3.6385299320    -7.1516029495
  120      C     -14.6208110998    -4.7502163080    -7.1580385639
  121      C     -15.1884120477    -5.9417334454    -7.8753555503
  122      H     -16.2247917503    -5.7732253374    -8.1673342455
  123      H     -14.6268652316    -6.1706752800    -8.7828454534
  124      H     -15.1679446156    -6.8359823244    -7.2495029722
  125      C      -9.3040179195    -2.1102525833    -2.3196246057
  126      H      -9.9789194107    -2.8407149663    -1.8731884964
  127      H      -8.9523210681    -1.4484056495    -1.5264643108
  128      H      -8.4316230791    -2.6477276102    -2.6966139078
  129      C     -18.1532504696     1.2962057478    -5.5886129493
  130      H     -18.8656692935     0.6835111708    -6.1405584282
  131      H     -18.0734127264     2.2523179414    -6.1089404360
  132      H     -18.5888149939     1.4987556842    -4.6081819196
  133      C      -9.2494693464     1.5339441433    -5.7903195228
  134      H      -9.8980360024     2.0231115525    -6.5171310663
  135      H      -8.9015354216     2.2922461447    -5.0866502696
  136      H      -8.3676576561     1.1705650224    -6.3219748731
 ----------------------------------------------------------------

   14   -3082.4542065033      9.53e-09  Convergence criterion met
 Total energy in the final basis set =    -3082.4542065033

         TDDFT/TDA Excitation Energies
 ---------------------------------------------------

 Excited state   1: excitation energy (eV) =    2.1842
 Total energy for state  1:                 -3082.37393911 au
    Multiplicity: Triplet
    Trans. Mom.:  0.0000 X   0.0000 Y   0.0000 Z
    Strength   :     0.0000000000
    D(263) --> V(  1) amplitude =  0.6857
    D(264) --> V(  1) amplitude =  0.6087

 Excited state   2: excitation energy (eV) =    2.4003
 Total energy for state  2:                 -3082.36599863 au
    Multiplicity: Triplet
    Trans. Mom.:  0.0000 X   0.0000 Y   0.0000 Z
    Strength   :     0.0000000000
    D(262) --> V(  2) amplitude =  0.3326
    D(263) --> V(  1) amplitude =  0.4452
    D(264) --> V(  1) amplitude = -0.3963
    D(268) --> V(  1) amplitude =  0.6622

 Excited state   3: excitation energy (eV) =    2.4338
 Total energy for state  3:                 -3082.36476570 au
    Multiplicity: Singlet
    Trans. Mom.:  0.0045 X  -0.0947 Y  -0.1324 Z
    Strength   :     0.0015814621
    D(261) --> V(  1) amplitude = -0.2230
    D(268) --> V(  1) amplitude =  0.9649

 Excited state   4: excitation energy (eV) =    2.4403
 Total energy for state  4:                 -3082.36452691 au
    Multiplicity: Triplet
    Trans. Mom.:  0.0000 X   0.0000 Y   0.0000 Z
    Strength   :     0.0000000000
    D(262) --> V(  2) amplitude = -0.3367
    D(263) --> V(  1) amplitude = -0.3256
    D(264) --> V(  1) amplitude =  0.4440
    D(268) --> V(  1) amplitude =  0.6860

 Excited state   5: excitation energy (eV) =    2.4792
 Total energy for state  5:                 -3082.36309628 au
    Multiplicity: Triplet
    Trans. Mom.:  0.0000 X   0.0000 Y   0.0000 Z
    Strength   :     0.0000000000
    D(262) --> V(  1) amplitude =  0.7414
    D(262) --> V(  4) amplitude = -0.2395
    D(263) --> V(  2) amplitude =  0.2852
    D(264) --> V(  2) amplitude = -0.4677

 Excited state   6: excitation energy (eV) =    2.6948
 Total energy for state  6:                 -3082.35517271 au
    Multiplicity: Triplet
    Trans. Mom.:  0.0000 X   0.0000 Y   0.0000 Z
    Strength   :     0.0000000000
    D(257) --> V(  1) amplitude =  0.6194
    D(258) --> V(  1) amplitude =  0.3374
    D(263) --> V(  2) amplitude =  0.4770
    D(264) --> V(  2) amplitude =  0.2852

 Excited state   7: excitation energy (eV) =    2.7174
 Total energy for state  7:                 -3082.35434359 au
    Multiplicity: Triplet
    Trans. Mom.:  0.0000 X   0.0000 Y   0.0000 Z
    Strength   :     0.0000000000
    D(267) --> V(  1) amplitude =  0.9685

 Excited state   8: excitation energy (eV) =    2.7246
 Total energy for state  8:                 -3082.35407922 au
    Multiplicity: Singlet
    Trans. Mom.: -0.0470 X   0.0650 Y   0.0546 Z
    Strength   :     0.0006287606
    D(267) --> V(  1) amplitude =  0.9756

 Excited state   9: excitation energy (eV) =    2.8570
 Total energy for state  9:                 -3082.34921357 au
    Multiplicity: Singlet
    Trans. Mom.: -0.0531 X   0.1116 Y   0.1368 Z
    Strength   :     0.0023796632
    D(263) --> V(  1) amplitude =  0.7492
    D(264) --> V(  1) amplitude =  0.6084

 Excited state  10: excitation energy (eV) =    3.1917
 Total energy for state 10:                 -3082.33691433 au
    Multiplicity: Singlet
    Trans. Mom.: -0.8106 X   2.3277 Y   2.4262 Z
    Strength   :     0.9353371246
    D(263) --> V(  1) amplitude = -0.5991
    D(264) --> V(  1) amplitude =  0.7386

 Excited state  11: excitation energy (eV) =    3.2674
 Total energy for state 11:                 -3082.33413280 au
    Multiplicity: Singlet
    Trans. Mom.: -0.0005 X  -0.0055 Y  -0.0125 Z
    Strength   :     0.0000149263
    D(266) --> V(  1) amplitude =  0.9985

 Excited state  12: excitation energy (eV) =    3.3821
 Total energy for state 12:                 -3082.32991709 au
    Multiplicity: Singlet
    Trans. Mom.: -0.0053 X  -0.0082 Y   0.0053 Z
    Strength   :     0.0000101959
    D(265) --> V(  1) amplitude =  0.9985

 ---------------------------------------------------

                    Orbital Energies (a.u.)
 --------------------------------------------------------------

 Alpha MOs
 -- Occupied --
-14.684 -14.683 -10.490 -10.490 -10.479 -10.479 -10.478 -10.477
-10.470 -10.470 -10.469 -10.469 -10.469 -10.469 -10.469 -10.469
-10.468 -10.467 -10.467 -10.466 -10.466 -10.466 -10.466 -10.466
-10.465 -10.464 -10.463 -10.463 -10.463 -10.463 -10.462 -10.462
-10.461 -10.460 -10.459 -10.459 -10.458 -10.457 -10.451 -10.451
-10.447 -10.446 -10.446 -10.445 -10.444 -10.444 -10.443 -10.443
-10.443 -10.443 -10.442 -10.442 -10.442 -10.441 -10.441 -10.441
-10.441 -10.440 -10.440 -10.440 -10.440 -10.440 -10.439 -10.439
-10.439 -10.439 -10.439 -10.439 -10.435 -10.433 -10.433 -10.432
-10.431 -10.428 -10.427 -10.427 -10.427 -10.427  -6.952  -6.949
 -1.107  -1.104  -1.020  -1.019  -0.975  -0.973  -0.965  -0.963
 -0.951  -0.949  -0.946  -0.945  -0.937  -0.937  -0.913  -0.904
 -0.892  -0.891  -0.881  -0.881  -0.863  -0.862  -0.861  -0.860
 -0.852  -0.851  -0.850  -0.850  -0.834  -0.833  -0.826  -0.817
 -0.816  -0.813  -0.808  -0.808  -0.780  -0.778  -0.777  -0.775
 -0.765  -0.763  -0.761  -0.759  -0.740  -0.733  -0.732  -0.725
 -0.713  -0.713  -0.697  -0.694  -0.690  -0.684  -0.676  -0.671
 -0.662  -0.660  -0.656  -0.655  -0.653  -0.651  -0.642  -0.640
 -0.638  -0.637  -0.602  -0.600  -0.597  -0.594  -0.591  -0.590
 -0.588  -0.585  -0.583  -0.581  -0.581  -0.559  -0.556  -0.554
 -0.550  -0.549  -0.540  -0.538  -0.533  -0.532  -0.531  -0.525
 -0.518  -0.513  -0.511  -0.508  -0.507  -0.503  -0.500  -0.498
 -0.496  -0.496  -0.495  -0.494  -0.494  -0.492  -0.490  -0.488
 -0.488  -0.487  -0.485  -0.484  -0.481  -0.479  -0.478  -0.477
 -0.476  -0.473  -0.473  -0.472  -0.471  -0.471  -0.471  -0.470
 -0.469  -0.468  -0.466  -0.466  -0.465  -0.461  -0.450  -0.446
 -0.446  -0.445  -0.440  -0.437  -0.436  -0.432  -0.430  -0.430
 -0.428  -0.428  -0.427  -0.417  -0.414  -0.414  -0.411  -0.409
 -0.405  -0.405  -0.402  -0.399  -0.399  -0.398  -0.398  -0.397
 -0.396  -0.396  -0.395  -0.394  -0.388  -0.387  -0.385  -0.381
 -0.380  -0.374  -0.366  -0.365  -0.362  -0.355  -0.355  -0.343
 -0.325  -0.322  -0.320  -0.319  -0.299  -0.298  -0.288  -0.287
 -0.285  -0.285  -0.283  -0.282  -0.278  -0.266  -0.260  -0.259
 -0.248  -0.244  -0.228  -0.222

          Ground-State Mulliken Net Atomic Charges

     Atom                 Charge (a.u.)
  ----------------------------------------
      1 N                    -0.734845
      2 C                     0.312986
      3 C                     0.320843
      4 C                    -0.269653
      5 H                     0.241113
      6 C                    -0.274791
      7 H                     0.208087
      8 C                     0.344392
      9 C                    -0.267587
     10 H                     0.247490
     11 C                    -0.275548
     12 H                     0.209506
     13 C                    -0.367957
     14 H                     0.242443
     15 C                     0.060907
     16 C                    -0.385293
     17 H                     0.251090
     18 C                     0.050838
     19 C                     0.113174
     20 C                    -0.407799
     21 H                     0.198466
     22 C                     0.117570
     23 C                     0.113578
     24 C                    -0.410638
     25 H                     0.197931
     26 C                     0.122888
     27 C                    -0.219444
     28 C                    -0.708639
     29 H                     0.225654
     30 H                     0.228092
     31 H                     0.229387
     32 C                    -0.708606
     33 H                     0.225736
     34 H                     0.228794
     35 H                     0.228751
     36 C                    -0.754358
     37 H                     0.237697
     38 H                     0.246060
     39 H                     0.243289
     40 C                    -0.764790
     41 H                     0.241370
     42 H                     0.249728
     43 H                     0.248849
     44 B                     0.676082
     45 C                    -0.148421
     46 C                    -0.399291
     47 H                     0.226613
     48 C                     0.115930
     49 C                     0.091138
     50 C                    -0.383398
     51 H                     0.232654
     52 C                    -0.146433
     53 C                     0.195004
     54 C                    -0.375375
     55 H                     0.223016
     56 C                    -0.064304
     57 C                     0.251967
     58 C                     0.200153
     59 C                    -0.384771
     60 H                     0.220172
     61 C                    -0.206511
     62 H                     0.229783
     63 C                    -0.329958
     64 H                     0.222591
     65 C                    -0.202094
     66 H                     0.228430
     67 C                    -0.335481
     68 H                     0.222827
     69 C                    -0.142156
     70 C                    -0.391785
     71 H                     0.232220
     72 C                     0.115560
     73 C                     0.092316
     74 C                    -0.390184
     75 H                     0.226732
     76 C                    -0.152804
     77 C                     0.193889
     78 C                    -0.373782
     79 H                     0.219377
     80 C                    -0.065878
     81 C                     0.251259
     82 C                     0.200686
     83 C                    -0.384133
     84 H                     0.223958
     85 C                    -0.205560
     86 H                     0.228491
     87 C                    -0.330127
     88 H                     0.222621
     89 C                    -0.202956
     90 H                     0.229808
     91 C                    -0.334748
     92 H                     0.222810
     93 B                     0.690369
     94 C                    -0.211607
     95 C                     0.051025
     96 C                    -0.335675
     97 H                     0.234660
     98 C                     0.309225
     99 C                    -0.350755
    100 H                     0.233983
    101 C                     0.043971
    102 N                    -0.737422
    103 C                     0.326033
    104 C                     0.325024
    105 C                    -0.264625
    106 H                     0.230022
    107 C                    -0.280469
    108 H                     0.207301
    109 C                    -0.264613
    110 H                     0.229781
    111 C                    -0.278635
    112 H                     0.206757
    113 C                     0.113359
    114 C                    -0.404876
    115 H                     0.195974
    116 C                     0.121726
    117 C                     0.113906
    118 C                    -0.403521
    119 H                     0.196690
    120 C                     0.121815
    121 C                    -0.708531
    122 H                     0.225183
    123 H                     0.226665
    124 H                     0.229902
    125 C                    -0.763990
    126 H                     0.242662
    127 H                     0.248665
    128 H                     0.248035
    129 C                    -0.708435
    130 H                     0.225156
    131 H                     0.227261
    132 H                     0.229637
    133 C                    -0.753900
    134 H                     0.239771
    135 H                     0.243869
    136 H                     0.245926
  ----------------------------------------
  Sum of atomic charges =    -0.000000

                    Cartesian Multipole Moments
 -----------------------------------------------------------------
    Charge (ESU x 10^10)
                -0.0000
    Dipole Moment (Debye)
         X       0.5335      Y       0.9144      Z      -0.7806
       Tot       1.3153
    Quadrupole Moments (Debye-Ang)
        XX    -455.3653     XY     -20.9642     YY    -432.6067
        XZ      -8.1485     YZ      29.6836     ZZ    -422.2462

 Total job time:  19242.16s(wall), 66471.20s(cpu)
        *  Thank you very much for using Q-Chem.  Have a nice day.  *
