 Q-Chem 5.1, Q-Chem, Inc., Pleasanton, CA (2018)
 Q-Chem 5.1.1 for Intel X86 EM64T Linux

User input:
--------------------------------------------------------------
$rem
threads 8
jobtype	sp
method PBEh-3c
basis def2-mSVP
mem_static	1024
mem_total	14000
sym_ignore	true
cis_n_roots             6
cis_singlets            true
cis_triplets		true
rpa                     false
calc_soc 		true
cis_moments             true
cis_relaxed_density	true
$end

$molecule
read t1opt.mol
$end

--------------------------------------------------------------

             Standard Nuclear Orientation (Angstroms)
    I     Atom           X                Y                Z
 ----------------------------------------------------------------
    1      N       0.0000000000     0.0000000000     0.0000000000
    2      C       0.0000000000     0.0000000000     1.3786120000
    3      C       1.3101025388     0.0000000000    -0.4411132728
    4      C       1.8208403583    -0.0701107114    -1.7305617584
    5      H       1.1714054745    -0.1018108771    -2.5951245065
    6      C       3.1947865871    -0.1116342361    -1.8750440153
    7      H       3.6096876030    -0.1694104529    -2.8746059969
    8      C      -1.0678109830    -0.0100232680     2.2704455622
    9      H      -2.0935298798    -0.0117471773     1.9262189849
   10      C      -0.7795818792    -0.0223629962     3.6212828599
   11      H      -1.6015975631    -0.0365980333     4.3278988694
   12      C       1.3238498407     0.0136027554     1.8389455132
   13      C       1.5826417950     0.0012397473     3.2076271593
   14      H       2.6056161098     0.0020114728     3.5674106315
   15      C       0.5355932593    -0.0214601315     4.1122391445
   16      C       2.1628529844     0.0149244749     0.6724515303
   17      C       3.5416156962    -0.0267400538     0.4963638387
   18      H       4.1982611805    -0.0243649731     1.3593123930
   19      C       4.0722791016    -0.0892147915    -0.7793974049
   20      C      -1.1373349880    -0.1184098092    -0.8198582760
   21      C      -1.4052986377     0.8568746387    -1.7664162922
   22      H      -0.7582842681     1.7240211607    -1.8307303097
   23      C      -1.9765888293    -1.2155034696    -0.6969077727
   24      H      -1.7577582086    -1.9755185614     0.0449294681
   25      C      -2.4885855602     0.7241505972    -2.6240735708
   26      C      -3.0757924255    -1.3528770836    -1.5360783045
   27      C      -3.3296961816    -0.3921471594    -2.5227349890
   28      C       5.5569067560    -0.1415458973    -1.0006527577
   29      H       6.0995338200    -0.1458787794    -0.0557659818
   30      H       5.9086914614     0.7176051918    -1.5744330117
   31      H       5.8504193742    -1.0382441740    -1.5493688084
   32      C       0.7840169625    -0.0494826901     5.5937713026
   33      H       1.8497492732    -0.0368579287     5.8199408601
   34      H       0.3337758145     0.8100849707     6.0933645392
   35      H       0.3639226890    -0.9456341481     6.0542081538
   36      C      -2.7521633558     1.7838837112    -3.6564383730
   37      H      -2.0200991450     2.5889050308    -3.5993268832
   38      H      -3.7413412577     2.2274785545    -3.5288961227
   39      H      -2.7141810085     1.3752715526    -4.6682725898
   40      C      -3.9717141972    -2.5525627010    -1.4029885246
   41      H      -3.6679137510    -3.1916923485    -0.5744414065
   42      H      -5.0092084067    -2.2588270475    -1.2318353334
   43      H      -3.9620803324    -3.1616776964    -2.3094312511
   44      B      -4.4837787965    -0.5634349162    -3.5788430318
   45      C      -5.8773445505     0.0303306947    -3.3586385977
   46      C      -6.2083679061     0.5879504765    -2.1191499190
   47      H      -5.4637830688     0.6112271437    -1.3303887063
   48      C      -7.4696984812     1.0872841790    -1.9022243393
   49      C      -8.0769090617     1.6588488072    -0.7220700109
   50      C      -7.6514993905     1.9071054621     0.5623036035
   51      H      -6.6432896950     1.6792704778     0.8848101328
   52      C      -8.5681593785     2.4695188122     1.4732280307
   53      H      -8.2388259970     2.6663538544     2.4851354666
   54      C      -9.8660246048     2.7722798455     1.1232540978
   55      H     -10.5348283973     3.1993509454     1.8602256847
   56      C      -9.4065051532     1.9741621212    -1.0752589532
   57      C     -10.3303393035     2.5228866026    -0.1916412131
   58      C      -9.6847118092     1.6378388396    -2.4180215684
   59      C     -10.9514597334     1.8675840273    -2.8962312871
   60      H     -11.2302583938     1.6238916589    -3.9131578216
   61      C     -11.9080042253     2.4298472832    -2.0239119108
   62      H     -12.9058952962     2.6097360377    -2.4013428340
   63      C     -11.6247135265     2.7522418462    -0.7153217958
   64      H     -12.3963435409     3.1771819925    -0.0854835372
   65      C      -8.4617368898     1.0698155763    -2.9589964249
   66      C      -8.1405602663     0.5514429000    -4.1905852758
   67      H      -8.8738172255     0.5444729073    -4.9886640733
   68      C      -6.8637306453     0.0115394954    -4.4236237827
   69      C      -4.1948876275    -1.3044180630    -4.8889051692
   70      C      -2.9777241443    -1.9677582632    -5.0560240105
   71      H      -2.2428108846    -1.9511273772    -4.2586283048
   72      C      -2.7123320016    -2.6396777457    -6.2251873377
   73      C      -1.5628587431    -3.4046577722    -6.6326318305
   74      C      -0.3667708260    -3.7454529866    -6.0397606244
   75      H      -0.1119726914    -3.4214777100    -5.0384691590
   76      C       0.5370848706    -4.5398438771    -6.7702506852
   77      H       1.4779412689    -4.8115555419    -6.3095367015
   78      C       0.2666552299    -4.9834828180    -8.0475094420
   79      H       0.9944022058    -5.5933840753    -8.5682621010
   80      C      -1.8346844040    -3.8624095069    -7.9406304559
   81      C      -0.9558630363    -4.6478640712    -8.6797079667
   82      C      -3.1004916923    -3.4296235618    -8.3949006788
   83      C      -3.4982589588    -3.8030038427    -9.6563233079
   84      H      -4.4550190683    -3.5043657613   -10.0642666135
   85      C      -2.6255093659    -4.5974439191   -10.4295391354
   86      H      -2.9395405741    -4.8901279197   -11.4226434681
   87      C      -1.3945666467    -5.0146494200    -9.9733059684
   88      H      -0.7623994170    -5.6241410918   -10.6069928560
   89      C      -3.6776135490    -2.6494152135    -7.3149253666
   90      C      -4.8727378804    -1.9857231809    -7.1700717847
   91      H      -5.5986741609    -1.9738976906    -7.9750023174
   92      C      -5.1720396048    -1.3160873545    -5.9706527016
   93      B      -6.5136190398    -0.5945044432    -5.7928145992
   94      C      -7.5199073959    -0.4235967869    -6.9890717657
   95      C      -8.5339494227    -1.3554011085    -7.2355923445
   96      C      -9.4724974450    -1.1122571850    -8.2333825052
   97      H     -10.2845378841    -1.8093530297    -8.4023004742
   98      C      -9.3940720462     0.0409737004    -8.9986256328
   99      C      -8.3652356372     0.9472711945    -8.7852562262
  100      H      -8.2999835445     1.8344467537    -9.4042261242
  101      C      -7.4348454280     0.7295014922    -7.7795452360
  102      N     -10.3648453699     0.3219266211    -9.9814085757
  103      C     -11.1391203396     1.4619430758   -10.0089102301
  104      C     -10.5380566989    -0.3502985037   -11.1729213005
  105      C      -9.9093744069    -1.5047353749   -11.6200382578
  106      H      -9.1877808562    -2.0274635615   -11.0055024616
  107      C     -10.2271706179    -1.9512932093   -12.8865294536
  108      H      -9.7452907614    -2.8469818302   -13.2611237432
  109      C     -11.2630050259     2.4537121316    -9.0428229418
  110      H     -10.7199971301     2.4040536069    -8.1078055319
  111      C     -12.0970447725     3.5160973034    -9.3237116783
  112      H     -12.2021241754     4.3061053380    -8.5889272688
  113      C     -11.8424338021     1.5193561013   -11.2210356805
  114      C     -12.6791023283     2.6044140365   -11.4704146123
  115      H     -13.2225621242     2.6669174944   -12.4059105371
  116      C     -12.8092811144     3.6120660250   -10.5297000930
  117      C     -11.4545506113     0.3512186352   -11.9713873457
  118      C     -11.7548239260    -0.1291225062   -13.2424544448
  119      H     -12.4556816610     0.4054946022   -13.8728249698
  120      C     -11.1454293378    -1.2812517281   -13.7101375769
  121      C     -11.4381477242    -1.8147695371   -15.0830544443
  122      H     -12.1614370634    -1.1920627333   -15.6083335780
  123      H     -11.8460676390    -2.8262822231   -15.0427607364
  124      H     -10.5361317406    -1.8553883007   -15.6963051544
  125      C     -13.6886135359     4.8038318164   -10.7783322844
  126      H     -14.1838146189     4.7419100373   -11.7467124196
  127      H     -14.4666427598     4.8940183266   -10.0182322913
  128      H     -13.1153374009     5.7326524083   -10.7638015315
  129      C      -8.6250678409    -2.5969294779    -6.3925800960
  130      H      -9.4639178050    -3.2277964670    -6.6853197335
  131      H      -7.7168536017    -3.1984888313    -6.4692845445
  132      H      -8.7504440876    -2.3529225775    -5.3352876704
  133      C      -6.3412341280     1.7315446099    -7.5339094591
  134      H      -6.4031472824     2.5723739413    -8.2238006861
  135      H      -5.3531812241     1.2809659996    -7.6487952416
  136      H      -6.3896455762     2.1330572578    -6.5192678090
 ----------------------------------------------------------------

   15   -3082.4543255469      7.23e-09  Convergence criterion met
 Total energy in the final basis set =    -3082.4543255469

         TDDFT/TDA Excitation Energies
 ---------------------------------------------------

 Excited state   1: excitation energy (eV) =    1.9838
 Total energy for state  1:                 -3082.38142355 au
    Multiplicity: Triplet
    Trans. Mom.:  0.0000 X   0.0000 Y   0.0000 Z
    Strength   :     0.0000000000
    D(261) --> V(  2) amplitude =  0.2434
    D(264) --> V(  1) amplitude =  0.9239

 Excited state   2: excitation energy (eV) =    2.3605
 Total energy for state  2:                 -3082.36757933 au
    Multiplicity: Triplet
    Trans. Mom.:  0.0000 X   0.0000 Y   0.0000 Z
    Strength   :     0.0000000000
    D(262) --> V(  2) amplitude = -0.4678
    D(263) --> V(  1) amplitude =  0.7970

 Excited state   3: excitation energy (eV) =    2.4234
 Total energy for state  3:                 -3082.36526671 au
    Multiplicity: Triplet
    Trans. Mom.:  0.0000 X   0.0000 Y   0.0000 Z
    Strength   :     0.0000000000
    D(262) --> V(  1) amplitude =  0.7142
    D(262) --> V(  4) amplitude = -0.2212
    D(263) --> V(  2) amplitude = -0.5020
    D(264) --> V(  2) amplitude =  0.2229

 Excited state   4: excitation energy (eV) =    2.5042
 Total energy for state  4:                 -3082.36229905 au
    Multiplicity: Triplet
    Trans. Mom.:  0.0000 X   0.0000 Y   0.0000 Z
    Strength   :     0.0000000000
    D(261) --> V(  1) amplitude = -0.6871
    D(263) --> V(  2) amplitude = -0.2273
    D(264) --> V(  2) amplitude = -0.5287

 Excited state   5: excitation energy (eV) =    2.6383
 Total energy for state  5:                 -3082.35736926 au
    Multiplicity: Triplet
    Trans. Mom.:  0.0000 X   0.0000 Y   0.0000 Z
    Strength   :     0.0000000000
    D(267) --> V(  1) amplitude =  0.6774
    D(268) --> V(  1) amplitude =  0.6819

 Excited state   6: excitation energy (eV) =    2.6501
 Total energy for state  6:                 -3082.35693477 au
    Multiplicity: Singlet
    Trans. Mom.: -0.0875 X   0.0739 Y   0.0825 Z
    Strength   :     0.0012937469
    D(267) --> V(  1) amplitude =  0.6931
    D(268) --> V(  1) amplitude =  0.6822

 Excited state   7: excitation energy (eV) =    2.6535
 Total energy for state  7:                 -3082.35681158 au
    Multiplicity: Singlet
    Trans. Mom.: -0.1166 X   0.0816 Y   0.0348 Z
    Strength   :     0.0013950073
    D(264) --> V(  1) amplitude =  0.7344
    D(267) --> V(  1) amplitude = -0.4294
    D(268) --> V(  1) amplitude =  0.4699

 Excited state   8: excitation energy (eV) =    2.6617
 Total energy for state  8:                 -3082.35651158 au
    Multiplicity: Triplet
    Trans. Mom.:  0.0000 X   0.0000 Y   0.0000 Z
    Strength   :     0.0000000000
    D(267) --> V(  1) amplitude =  0.6930
    D(268) --> V(  1) amplitude = -0.6903

 Excited state   9: excitation energy (eV) =    2.6757
 Total energy for state  9:                 -3082.35599572 au
    Multiplicity: Singlet
    Trans. Mom.: -0.0661 X   0.0598 Y   0.0684 Z
    Strength   :     0.0008269820
    D(264) --> V(  1) amplitude =  0.6243
    D(267) --> V(  1) amplitude =  0.5370
    D(268) --> V(  1) amplitude = -0.5198

 Excited state  10: excitation energy (eV) =    3.1549
 Total energy for state 10:                 -3082.33838390 au
    Multiplicity: Singlet
    Trans. Mom.:  2.2564 X  -1.7165 Y  -2.0055 Z
    Strength   :     0.9321421631
    D(263) --> V(  1) amplitude =  0.9446

 Excited state  11: excitation energy (eV) =    3.2235
 Total energy for state 11:                 -3082.33586482 au
    Multiplicity: Singlet
    Trans. Mom.: -0.0352 X   0.0345 Y   0.0420 Z
    Strength   :     0.0003317124
    D(266) --> V(  1) amplitude =  0.9980

 Excited state  12: excitation energy (eV) =    3.2342
 Total energy for state 12:                 -3082.33546983 au
    Multiplicity: Singlet
    Trans. Mom.: -0.0036 X   0.0081 Y   0.0020 Z
    Strength   :     0.0000065185
    D(265) --> V(  1) amplitude =  0.9988

 ---------------------------------------------------

                    Orbital Energies (a.u.)
 --------------------------------------------------------------

 Alpha MOs
 -- Occupied --
-14.684 -14.682 -10.490 -10.489 -10.478 -10.478 -10.477 -10.476
-10.471 -10.470 -10.470 -10.470 -10.470 -10.470 -10.469 -10.469
-10.468 -10.468 -10.468 -10.467 -10.467 -10.467 -10.466 -10.466
-10.464 -10.464 -10.464 -10.464 -10.464 -10.464 -10.462 -10.461
-10.461 -10.460 -10.460 -10.459 -10.458 -10.457 -10.451 -10.451
-10.447 -10.446 -10.445 -10.445 -10.445 -10.445 -10.444 -10.444
-10.442 -10.442 -10.442 -10.442 -10.441 -10.441 -10.441 -10.441
-10.441 -10.441 -10.440 -10.440 -10.440 -10.439 -10.439 -10.439
-10.439 -10.439 -10.438 -10.438 -10.435 -10.435 -10.433 -10.433
-10.431 -10.430 -10.428 -10.428 -10.427 -10.427  -6.950  -6.949
 -1.104  -1.104  -1.019  -1.019  -0.976  -0.974  -0.963  -0.961
 -0.949  -0.949  -0.946  -0.945  -0.938  -0.938  -0.911  -0.902
 -0.892  -0.890  -0.881  -0.880  -0.865  -0.863  -0.862  -0.861
 -0.853  -0.852  -0.850  -0.850  -0.834  -0.833  -0.821  -0.818
 -0.817  -0.809  -0.808  -0.803  -0.780  -0.779  -0.776  -0.775
 -0.765  -0.765  -0.762  -0.760  -0.738  -0.736  -0.734  -0.723
 -0.713  -0.712  -0.697  -0.694  -0.690  -0.683  -0.677  -0.673
 -0.661  -0.659  -0.655  -0.655  -0.651  -0.648  -0.643  -0.642
 -0.639  -0.638  -0.604  -0.598  -0.598  -0.595  -0.592  -0.591
 -0.588  -0.583  -0.582  -0.582  -0.580  -0.558  -0.556  -0.556
 -0.553  -0.547  -0.540  -0.538  -0.533  -0.532  -0.530  -0.525
 -0.519  -0.515  -0.508  -0.507  -0.507  -0.506  -0.499  -0.498
 -0.496  -0.495  -0.495  -0.493  -0.491  -0.491  -0.491  -0.488
 -0.488  -0.487  -0.485  -0.485  -0.482  -0.479  -0.479  -0.478
 -0.477  -0.472  -0.472  -0.472  -0.471  -0.471  -0.470  -0.469
 -0.468  -0.468  -0.465  -0.465  -0.465  -0.461  -0.448  -0.446
 -0.445  -0.445  -0.439  -0.437  -0.435  -0.432  -0.431  -0.429
 -0.428  -0.427  -0.425  -0.415  -0.415  -0.414  -0.410  -0.409
 -0.405  -0.404  -0.403  -0.400  -0.400  -0.400  -0.397  -0.397
 -0.397  -0.396  -0.395  -0.393  -0.387  -0.387  -0.383  -0.382
 -0.381  -0.372  -0.368  -0.365  -0.362  -0.355  -0.353  -0.344
 -0.328  -0.322  -0.321  -0.320  -0.300  -0.300  -0.288  -0.288
 -0.286  -0.283  -0.283  -0.281  -0.281  -0.267  -0.260  -0.254
 -0.245  -0.244  -0.228  -0.228

          Ground-State Mulliken Net Atomic Charges

     Atom                 Charge (a.u.)
  ----------------------------------------
      1 N                    -0.739332
      2 C                     0.325316
      3 C                     0.323804
      4 C                    -0.264958
      5 H                     0.231650
      6 C                    -0.279742
      7 H                     0.207774
      8 C                    -0.264536
      9 H                     0.230767
     10 C                    -0.278127
     11 H                     0.207046
     12 C                     0.112781
     13 C                    -0.405034
     14 H                     0.196191
     15 C                     0.122091
     16 C                     0.113150
     17 C                    -0.403382
     18 H                     0.196830
     19 C                     0.121941
     20 C                     0.320962
     21 C                    -0.359090
     22 H                     0.235053
     23 C                    -0.343927
     24 H                     0.236469
     25 C                     0.048533
     26 C                     0.054284
     27 C                    -0.213743
     28 C                    -0.708830
     29 H                     0.225370
     30 H                     0.229549
     31 H                     0.227578
     32 C                    -0.708832
     33 H                     0.225455
     34 H                     0.228759
     35 H                     0.228568
     36 C                    -0.764953
     37 H                     0.242345
     38 H                     0.248833
     39 H                     0.248543
     40 C                    -0.753949
     41 H                     0.239603
     42 H                     0.243700
     43 H                     0.246171
     44 B                     0.688099
     45 C                    -0.153249
     46 C                    -0.383131
     47 H                     0.228323
     48 C                     0.080770
     49 C                     0.198884
     50 C                    -0.368932
     51 H                     0.220139
     52 C                    -0.206116
     53 H                     0.229071
     54 C                    -0.330085
     55 H                     0.222593
     56 C                    -0.069167
     57 C                     0.250012
     58 C                     0.204041
     59 C                    -0.378767
     60 H                     0.222576
     61 C                    -0.204256
     62 H                     0.229659
     63 C                    -0.333695
     64 H                     0.222902
     65 C                     0.103233
     66 C                    -0.387018
     67 H                     0.231926
     68 C                    -0.150515
     69 C                    -0.148731
     70 C                    -0.376076
     71 H                     0.233451
     72 C                     0.076949
     73 C                     0.199927
     74 C                    -0.368472
     75 H                     0.224003
     76 C                    -0.206588
     77 H                     0.230238
     78 C                    -0.329575
     79 H                     0.222681
     80 C                    -0.070325
     81 C                     0.250487
     82 C                     0.203832
     83 C                    -0.377574
     84 H                     0.220709
     85 C                    -0.203701
     86 H                     0.228740
     87 C                    -0.334072
     88 H                     0.223035
     89 C                     0.101784
     90 C                    -0.390229
     91 H                     0.228489
     92 C                    -0.155578
     93 B                     0.689350
     94 C                    -0.208665
     95 C                     0.052851
     96 C                    -0.348312
     97 H                     0.231305
     98 C                     0.306085
     99 C                    -0.342935
    100 H                     0.237574
    101 C                     0.048669
    102 N                    -0.731891
    103 C                     0.318122
    104 C                     0.321783
    105 C                    -0.264581
    106 H                     0.229248
    107 C                    -0.279676
    108 H                     0.206525
    109 C                    -0.263001
    110 H                     0.232449
    111 C                    -0.279989
    112 H                     0.207606
    113 C                     0.118729
    114 C                    -0.409485
    115 H                     0.196591
    116 C                     0.121778
    117 C                     0.123398
    118 C                    -0.409317
    119 H                     0.196777
    120 C                     0.121936
    121 C                    -0.708574
    122 H                     0.225211
    123 H                     0.228315
    124 H                     0.228117
    125 C                    -0.708517
    126 H                     0.225289
    127 H                     0.227938
    128 H                     0.228686
    129 C                    -0.756273
    130 H                     0.239446
    131 H                     0.244665
    132 H                     0.246695
    133 C                    -0.765444
    134 H                     0.242956
    135 H                     0.248080
    136 H                     0.249103
  ----------------------------------------
  Sum of atomic charges =    -0.000000

                    Cartesian Multipole Moments
 -----------------------------------------------------------------
    Charge (ESU x 10^10)
                -0.0000
    Dipole Moment (Debye)
         X      -0.0608      Y      -1.0955      Z       0.5197
       Tot       1.2140
    Quadrupole Moments (Debye-Ang)
        XX    -435.7773     XY     -19.2337     YY    -445.7932
        XZ     -29.4971     YZ      24.9336     ZZ    -433.6318

 Total job time:  21835.16s(wall), 94794.24s(cpu)
        *  Thank you very much for using Q-Chem.  Have a nice day.  *
