 Q-Chem 5.1, Q-Chem, Inc., Pleasanton, CA (2018)
 Q-Chem 5.1.1 for Intel X86 EM64T Linux

User input:
--------------------------------------------------------------
$rem
threads 8
jobtype	opt
method PBEh-3c
basis def2-mSVP
mem_static	1024
mem_total	14000
sym_ignore	true
cis_n_roots             2
cis_singlets            false
cis_triplets		true
rpa                     false
cis_state_deriv         1
$end

$molecule
read incoords.mol
$end

--------------------------------------------------------------

   14   -3082.4551399068      9.68e-09  Convergence criterion met
 Total energy in the final basis set =    -3082.4551399068
   12   -3082.4547053907      7.21e-09  Convergence criterion met
 Total energy in the final basis set =    -3082.4547053907
   11   -3082.4549502871      6.59e-09  Convergence criterion met
 Total energy in the final basis set =    -3082.4549502871
   11   -3082.4551531473      7.95e-09  Convergence criterion met
 Total energy in the final basis set =    -3082.4551531473
   11   -3082.4549921153      4.72e-09  Convergence criterion met
 Total energy in the final basis set =    -3082.4549921153
   10   -3082.4550658569      7.47e-09  Convergence criterion met
 Total energy in the final basis set =    -3082.4550658569
   10   -3082.4550305721      5.59e-09  Convergence criterion met
 Total energy in the final basis set =    -3082.4550305721
    9   -3082.4550587108      5.63e-09  Convergence criterion met
 Total energy in the final basis set =    -3082.4550587108
    9   -3082.4550199724      8.10e-09  Convergence criterion met
 Total energy in the final basis set =    -3082.4550199724
    9   -3082.4550267098      5.44e-09  Convergence criterion met
 Total energy in the final basis set =    -3082.4550267098
    9   -3082.4550129805      4.70e-09  Convergence criterion met
 Total energy in the final basis set =    -3082.4550129805
    8   -3082.4550102346      7.91e-09  Convergence criterion met
 Total energy in the final basis set =    -3082.4550102346

             Standard Nuclear Orientation (Angstroms)
    I     Atom           X                Y                Z
 ----------------------------------------------------------------
    1      C     -12.2357934858    -1.8454909472   -10.8570883251
    2      C     -11.3493758969    -1.4206979738    -9.8564646746
    3      N     -10.3983503086    -2.4037169683    -9.6560337185
    4      C     -10.6700104225    -3.4576836626   -10.5021582906
    5      C     -11.8017057906    -3.1514051466   -11.2703577893
    6      C     -12.2835802520    -4.0753499667   -12.1947700262
    7      C     -11.6454055241    -5.2924834714   -12.3574623041
    8      C     -10.5072148864    -5.5657985216   -11.5825136189
    9      C     -10.0055481182    -4.6700159424   -10.6584502366
   10      C     -13.3175010612    -1.0485496584   -11.2155888666
   11      C     -13.5226122747     0.1624122654   -10.5795277379
   12      C     -12.6244515208     0.5581974994    -9.5757353736
   13      C     -11.5404133226    -0.2122654611    -9.1994700491
   14      C      -9.4041028284    -2.3867315797    -8.6605920694
   15      C      -8.4420724990    -1.3900429112    -8.6687294757
   16      C      -7.4914633172    -1.3234639684    -7.6594660778
   17      C      -7.4896924304    -2.2792371837    -6.6345994537
   18      C      -8.4400800251    -3.3074663798    -6.6562455122
   19      C      -9.3969711936    -3.3501348573    -7.6631544117
   20      B      -6.4661590234    -2.1118558952    -5.4509723470
   21      C      -5.0625880004    -2.7204871954    -5.5022575953
   22      C      -4.7225595641    -3.5996345466    -6.5358571506
   23      C      -3.4776409849    -4.1798024952    -6.5663174485
   24      C      -2.4935310730    -3.8681437083    -5.5486690959
   25      C      -2.8046505981    -2.9835865822    -4.5439604324
   26      C      -4.0821020067    -2.4003121548    -4.4806713073
   27      C      -1.3031877588    -4.6486126159    -5.8400862093
   28      C      -1.5939762303    -5.3983329154    -7.0006399715
   29      C      -2.8990538875    -5.1439355276    -7.4739739141
   30      C      -0.7192957343    -6.3013188930    -7.5963735281
   31      C       0.5418337245    -6.4437174131    -6.9706536791
   32      C       0.8379598736    -5.7168427256    -5.8390344681
   33      C      -0.0726809680    -4.8119942958    -5.2524835935
   34      C      -3.3458173867    -5.8130382678    -8.5897356749
   35      C      -2.4742965982    -6.7276779940    -9.2144297253
   36      C      -1.2022404774    -6.9741063900    -8.7456585495
   37      B      -4.4396590245    -1.4327116541    -3.3402979378
   38      C      -5.8842035229    -0.9351888581    -3.2064849885
   39      C      -6.2716833094    -0.1488410512    -2.1073411928
   40      C      -7.5732655587     0.2753203711    -1.9817888613
   41      C      -8.5471376744    -0.0779419632    -3.0046139122
   42      C      -8.1792424944    -0.8234953803    -4.0989885092
   43      C      -6.8647899273    -1.2756887061    -4.2300327595
   44      C      -9.8192994509     0.4823973331    -2.6302900887
   45      C      -9.6105395593     1.1582458160    -1.4080242308
   46      C      -8.2682427790     1.0613658615    -0.9781557567
   47      C     -10.6147476613     1.8302068878    -0.7184330614
   48      C     -11.9016970277     1.8100819117    -1.3102287594
   49      C     -12.1114433904     1.1511840378    -2.5032071162
   50      C     -11.0805488003     0.4771602245    -3.1848050265
   51      C      -7.9201585294     1.6745735525     0.2015194187
   52      C      -8.9180177879     2.3659082235     0.9205617558
   53      C     -10.2240818134     2.4505737292     0.4910768651
   54      C      -6.4672315967    -0.2239342444    -7.6758698142
   55      C      -8.4492953873    -4.3491696728    -5.5725460228
   56      C      -3.3079891918    -0.9431900631    -2.3643118048
   57      C      -2.9941216849    -1.6416268552    -1.1934200288
   58      C      -1.9135132706    -1.2404389166    -0.4143748832
   59      C      -1.1588826537    -0.1377074207    -0.7834357910
   60      C      -1.4926682733     0.5827708660    -1.9213741266
   61      C      -2.5537211239     0.1820462686    -2.7201805092
   62      N      -0.0338670075     0.2518277446    -0.0285855264
   63      C      -0.0500442833     0.7981417001     1.2374595522
   64      C       1.2385164213     1.2482163370     1.5640794876
   65      C       2.0725423449     0.9685927215     0.4220472189
   66      C       1.2433231644     0.3647396382    -0.5344837293
   67      C       1.4494919725     1.8724244321     2.7897860987
   68      C       0.3935139680     2.0517825349     3.6674150610
   69      C      -0.8832226648     1.5964309182     3.3026075008
   70      C      -1.1266885801     0.9703255355     2.0971513378
   71      C       3.4111479940     1.1975482218     0.1133923344
   72      C       3.9108144083     0.8327554034    -1.1253620463
   73      C       3.0534706394     0.2219772211    -2.0542371773
   74      C       1.7238309338    -0.0229459105    -1.7799109419
   75      C      -3.8050108359    -2.8467478617    -0.8054670803
   76      C      -2.8898924908     0.9495571658    -3.9685110605
   77      H      -2.1213444087     0.6390631270     1.8278546660
   78      H      -1.7084288757     1.7482878890     3.9887285821
   79      H       1.0806992874    -0.4907439819    -2.5141645789
   80      H       3.4481453228    -0.0634133880    -3.0226618980
   81      C       5.3446967769     1.0844349299    -1.4941292397
   82      H       4.0621496181     1.6708249347     0.8390743312
   83      C       0.5878652083     2.7354910878     4.9902887512
   84      H       2.4377057498     2.2309524732     3.0529881312
   85      H      -0.9100672014     1.4566650302    -2.1884810008
   86      H      -1.6394364690    -1.8011377131     0.4712803098
   87      H      -3.4470483656    -3.2984878650     0.1192777798
   88      H      -4.8568326503    -2.5903035692    -0.6622257940
   89      H      -3.7731128663    -3.6155059057    -1.5807864918
   90      H      -2.2193311224     1.7957378344    -4.1137829283
   91      H      -3.9102547650     1.3372611255    -3.9366628289
   92      H      -2.8196098387     0.3167700683    -4.8560322883
   93      H      -5.5311057244     0.1136185996    -1.3605499187
   94      H      -8.9090142717    -1.0639491672    -4.8643835814
   95      H     -11.2926342958    -0.0281689323    -4.1186835360
   96      H      -6.9093057369     1.6388901480     0.5860922732
   97      H     -13.1045446521     1.1498690635    -2.9333728217
   98      H     -12.7278565710     2.3135845616    -0.8236865470
   99      H      -8.6425470769     2.8487787299     1.8487256294
  100      H     -10.9520267895     2.9934729040     1.0810193647
  101      H      -5.4544542191    -3.8259591388    -7.3041016375
  102      H      -2.0704774781    -2.7377811460    -3.7855317561
  103      H       0.2078621511    -4.2731941667    -4.3568029062
  104      H      -4.3397088159    -5.6572659639    -8.9901374649
  105      H       1.2744530741    -7.1290787436    -7.3783692497
  106      H       1.8068109856    -5.8454544308    -5.3749358000
  107      H      -2.8209468450    -7.2571949469   -10.0922714546
  108      H      -0.5709671153    -7.6898017674    -9.2576053971
  109      H      -8.4412443861    -0.6617443120    -9.4714048227
  110      H     -10.1554199598    -4.1251110409    -7.6629968940
  111      H     -10.8738300709     0.1154131807    -8.4130016703
  112      H     -12.7895609125     1.5028911958    -9.0708612471
  113      H      -9.1260711805    -4.9131691030   -10.0770801178
  114      H     -10.0034217859    -6.5171210807   -11.7105657598
  115      C     -12.1503464409    -6.3143198539   -13.3364021965
  116      H     -13.1644978135    -3.8458387426   -12.7840317030
  117      C     -14.6854522041     1.0416374964   -10.9408830066
  118      H     -14.0064136659    -1.3836211528   -11.9830492237
  119      H      -9.2223400651    -5.0983388543    -5.7411271700
  120      H      -8.6300635188    -3.9044514506    -4.5915770268
  121      H      -7.4914240725    -4.8694119555    -5.5109135645
  122      H      -6.5935889808     0.4276499995    -8.5399936553
  123      H      -6.5339046913     0.3986166882    -6.7813312198
  124      H      -5.4525048720    -0.6247697910    -7.7101729740
  125      H     -15.3040517558     0.5849343748   -11.7129127337
  126      H     -15.3276933426     1.2333424310   -10.0794405282
  127      H     -14.3549491140     2.0105821962   -11.3190772107
  128      H     -13.0319657010    -5.9566590555   -13.8673663633
  129      H     -11.3956971864    -6.5611487179   -14.0852331256
  130      H     -12.4257626343    -7.2456531282   -12.8380715128
  131      H       1.6240121746     3.0392094117     5.1351460718
  132      H      -0.0293844036     3.6320833043     5.0708193899
  133      H       0.3189752999     2.0834445988     5.8231833410
  134      H       5.8920913282     1.5549556212    -0.6781704172
  135      H       5.8634031296     0.1572808307    -1.7442169156
  136      H       5.4240241675     1.7417265814    -2.3620226274
 ----------------------------------------------------------------

    8   -3082.4550119716      5.48e-09  Convergence criterion met
 Total energy in the final basis set =    -3082.4550119716

         TDDFT/TDA Excitation Energies
 ---------------------------------------------------

 Excited state   1: excitation energy (eV) =    1.9839
 Total energy for state  1:                 -3082.38210541 au
    Multiplicity: Triplet
    Trans. Mom.:  0.0000 X   0.0000 Y   0.0000 Z
    Strength   :     0.0000000000
    D(261) --> V(  2) amplitude = -0.2426
    D(264) --> V(  1) amplitude = -0.9237

 Excited state   2: excitation energy (eV) =    2.3609
 Total energy for state  2:                 -3082.36825050 au
    Multiplicity: Triplet
    Trans. Mom.:  0.0000 X   0.0000 Y   0.0000 Z
    Strength   :     0.0000000000
    D(262) --> V(  2) amplitude =  0.4683
    D(263) --> V(  1) amplitude =  0.7970

 ---------------------------------------------------

 Final energy is   -3082.38210541092
 **  OPTIMIZATION CONVERGED  **

                    Orbital Energies (a.u.)
 --------------------------------------------------------------

 Alpha MOs
 -- Occupied --
-14.684 -14.682 -10.490 -10.489 -10.478 -10.478 -10.477 -10.476
-10.471 -10.470 -10.470 -10.470 -10.470 -10.470 -10.469 -10.469
-10.468 -10.468 -10.468 -10.467 -10.467 -10.467 -10.466 -10.466
-10.464 -10.464 -10.464 -10.464 -10.464 -10.464 -10.462 -10.461
-10.461 -10.460 -10.460 -10.459 -10.458 -10.457 -10.451 -10.451
-10.447 -10.446 -10.445 -10.445 -10.445 -10.445 -10.444 -10.444
-10.442 -10.442 -10.442 -10.442 -10.441 -10.441 -10.441 -10.441
-10.441 -10.441 -10.440 -10.440 -10.440 -10.439 -10.439 -10.439
-10.439 -10.439 -10.438 -10.438 -10.435 -10.435 -10.433 -10.433
-10.431 -10.430 -10.428 -10.428 -10.427 -10.427  -6.950  -6.949
 -1.104  -1.104  -1.019  -1.019  -0.976  -0.975  -0.963  -0.961
 -0.949  -0.949  -0.946  -0.945  -0.938  -0.938  -0.911  -0.902
 -0.892  -0.890  -0.881  -0.880  -0.865  -0.863  -0.862  -0.861
 -0.853  -0.852  -0.850  -0.850  -0.834  -0.833  -0.821  -0.818
 -0.817  -0.809  -0.808  -0.803  -0.780  -0.779  -0.776  -0.775
 -0.765  -0.765  -0.762  -0.760  -0.738  -0.736  -0.734  -0.723
 -0.713  -0.712  -0.697  -0.694  -0.690  -0.683  -0.677  -0.673
 -0.661  -0.659  -0.655  -0.655  -0.651  -0.648  -0.643  -0.642
 -0.639  -0.638  -0.604  -0.598  -0.598  -0.595  -0.592  -0.591
 -0.588  -0.583  -0.582  -0.582  -0.580  -0.558  -0.556  -0.556
 -0.553  -0.547  -0.540  -0.538  -0.533  -0.532  -0.530  -0.525
 -0.519  -0.515  -0.508  -0.507  -0.507  -0.506  -0.499  -0.498
 -0.496  -0.495  -0.495  -0.493  -0.491  -0.491  -0.491  -0.488
 -0.488  -0.487  -0.485  -0.485  -0.482  -0.479  -0.479  -0.478
 -0.477  -0.472  -0.472  -0.472  -0.471  -0.471  -0.470  -0.469
 -0.468  -0.468  -0.465  -0.465  -0.465  -0.461  -0.448  -0.446
 -0.445  -0.445  -0.439  -0.437  -0.435  -0.432  -0.431  -0.429
 -0.428  -0.427  -0.425  -0.415  -0.415  -0.414  -0.410  -0.409
 -0.405  -0.404  -0.403  -0.400  -0.400  -0.400  -0.397  -0.397
 -0.397  -0.396  -0.395  -0.393  -0.387  -0.387  -0.383  -0.382
 -0.381  -0.372  -0.368  -0.365  -0.362  -0.355  -0.353  -0.344
 -0.328  -0.322  -0.321  -0.320  -0.300  -0.300  -0.288  -0.288
 -0.286  -0.283  -0.283  -0.281  -0.281  -0.267  -0.260  -0.254
 -0.245  -0.244  -0.228  -0.228

          Ground-State Mulliken Net Atomic Charges

     Atom                 Charge (a.u.)
  ----------------------------------------
      1 C                     0.112827
      2 C                     0.323603
      3 N                    -0.739316
      4 C                     0.324671
      5 C                     0.112841
      6 C                    -0.404718
      7 C                     0.122103
      8 C                    -0.278480
      9 C                    -0.264055
     10 C                    -0.402841
     11 C                     0.121718
     12 C                    -0.280118
     13 C                    -0.264719
     14 C                     0.319858
     15 C                    -0.357963
     16 C                     0.046993
     17 C                    -0.213057
     18 C                     0.052773
     19 C                    -0.342981
     20 B                     0.688038
     21 C                    -0.153207
     22 C                    -0.383102
     23 C                     0.080788
     24 C                     0.103776
     25 C                    -0.386623
     26 C                    -0.150504
     27 C                     0.203490
     28 C                    -0.068693
     29 C                     0.199025
     30 C                     0.249774
     31 C                    -0.333842
     32 C                    -0.204264
     33 C                    -0.378493
     34 C                    -0.369272
     35 C                    -0.206044
     36 C                    -0.330023
     37 B                     0.689138
     38 C                    -0.155499
     39 C                    -0.390307
     40 C                     0.101502
     41 C                     0.077259
     42 C                    -0.375967
     43 C                    -0.148041
     44 C                     0.199447
     45 C                    -0.070350
     46 C                     0.204355
     47 C                     0.250345
     48 C                    -0.329667
     49 C                    -0.206678
     50 C                    -0.368012
     51 C                    -0.377859
     52 C                    -0.203761
     53 C                    -0.333844
     54 C                    -0.764776
     55 C                    -0.753709
     56 C                    -0.208206
     57 C                     0.052504
     58 C                    -0.347723
     59 C                     0.305864
     60 C                    -0.342807
     61 C                     0.047831
     62 N                    -0.731975
     63 C                     0.321763
     64 C                     0.123106
     65 C                     0.118976
     66 C                     0.317767
     67 C                    -0.409239
     68 C                     0.121985
     69 C                    -0.279808
     70 C                    -0.264595
     71 C                    -0.409300
     72 C                     0.121668
     73 C                    -0.280052
     74 C                    -0.262764
     75 C                    -0.756129
     76 C                    -0.765663
     77 H                     0.229314
     78 H                     0.206522
     79 H                     0.232505
     80 H                     0.207670
     81 C                    -0.708534
     82 H                     0.196648
     83 C                    -0.708543
     84 H                     0.196815
     85 H                     0.237608
     86 H                     0.231207
     87 H                     0.239416
     88 H                     0.244654
     89 H                     0.246714
     90 H                     0.242950
     91 H                     0.248133
     92 H                     0.249158
     93 H                     0.228400
     94 H                     0.233461
     95 H                     0.223984
     96 H                     0.220754
     97 H                     0.230315
     98 H                     0.222691
     99 H                     0.228720
    100 H                     0.222989
    101 H                     0.228316
    102 H                     0.231875
    103 H                     0.222534
    104 H                     0.220138
    105 H                     0.222903
    106 H                     0.229666
    107 H                     0.229041
    108 H                     0.222561
    109 H                     0.235128
    110 H                     0.236534
    111 H                     0.231690
    112 H                     0.207910
    113 H                     0.230866
    114 H                     0.207053
    115 C                    -0.708615
    116 H                     0.196232
    117 C                    -0.708627
    118 H                     0.196828
    119 H                     0.239558
    120 H                     0.246204
    121 H                     0.243691
    122 H                     0.242303
    123 H                     0.248551
    124 H                     0.248851
    125 H                     0.225311
    126 H                     0.227551
    127 H                     0.229522
    128 H                     0.225398
    129 H                     0.228705
    130 H                     0.228518
    131 H                     0.225206
    132 H                     0.228096
    133 H                     0.228300
    134 H                     0.225280
    135 H                     0.227930
    136 H                     0.228696
  ----------------------------------------
  Sum of atomic charges =    -0.000000

                    Cartesian Multipole Moments
 -----------------------------------------------------------------
    Charge (ESU x 10^10)
                -0.0000
    Dipole Moment (Debye)
         X      -0.6861      Y      -0.8815      Z       0.4736
       Tot       1.2132
    Quadrupole Moments (Debye-Ang)
        XX    -422.0433     XY     -18.4610     YY    -433.4888
        XZ     -22.5093     YZ      28.7059     ZZ    -450.2728

 Total job time:  41748.30s(wall), 301056.54s(cpu)
        *  Thank you very much for using Q-Chem.  Have a nice day.  *
