 Q-Chem 5.0, Q-Chem, Inc., Pleasanton, CA (2017)
 Q-Chem 5.0.1 for Intel X86 EM64T Linux

User input:
--------------------------------------------------------------
$rem
threads 8
jobtype	sp
method PBEh-3c
basis def2-mSVP
mem_static	1024
mem_total	8000
sym_ignore	true
unrestricted true
scf_convergence	9
solvent_method	pcm
$end

$molecule
read incoords.mol
$end

$solvent
dielectric	8.93
$end

$pcm
theory iefpcm
$end
--------------------------------------------------------------

   17   -1855.5592102491      5.22E-10 Convergence criterion met
 Total energy in the final basis set = -1855.55921025
 Total job time:  1934.35s(wall), 7161.30s(cpu)
        *  Thank you very much for using Q-Chem.  Have a nice day.  *
 Q-Chem 5.0, Q-Chem, Inc., Pleasanton, CA (2017)
 Q-Chem 5.0.1 for Intel X86 EM64T Linux

User input:
--------------------------------------------------------------

$rem
threads 8
jobtype opt
method PBEh-3c
basis def2-mSVP
scf_guess	read
mem_static      1024
mem_total       8000
sym_ignore      true
unrestricted true
mom_start       1
scf_algorithm	diis
scf_max_cycles	250
solvent_method	pcm
geom_opt_tol_energy 25
geom_opt_tol_gradient 75
$end

$solvent
dielectric      8.93
$end
$pcm
theory iefpcm
$end

$occupied
1 2 3 4 5 6 7 8 9 10 11 12 13 14 15 16 17 18 19 20 21 22 23 24 25 26 27 28 29 30 31 32 33 34 35 36 37 38 39 40 41 42 43 44 45 46 47 48 49 50 51 52 53 54 55 56 57 58 59 60 61 62 63 64 65 66 67 68 69 70 71 72 73 74 75 76 77 78 79 80 81 82 83 84 85 86 87 88 89 90 91 92 93 94 95 96 97 98 99 100 101 102 103 104 105 106 107 108 109 110 111 112 113 114 115 116 117 118 119 120 121 122 123 124 125 126 127 128 129 130 131 132 133 134 135 136 137 138 139 140 141 142 143 144 145 146 147 148 149 150 151 152 153 154 155 156 157 159
1 2 3 4 5 6 7 8 9 10 11 12 13 14 15 16 17 18 19 20 21 22 23 24 25 26 27 28 29 30 31 32 33 34 35 36 37 38 39 40 41 42 43 44 45 46 47 48 49 50 51 52 53 54 55 56 57 58 59 60 61 62 63 64 65 66 67 68 69 70 71 72 73 74 75 76 77 78 79 80 81 82 83 84 85 86 87 88 89 90 91 92 93 94 95 96 97 98 99 100 101 102 103 104 105 106 107 108 109 110 111 112 113 114 115 116 117 118 119 120 121 122 123 124 125 126 127 128 129 130 131 132 133 134 135 136 137 138 139 140 141 142 143 144 145 146 147 148 149 150 151 152 153 154 155 156 157 158
$end

$molecule
read incoords.mol
$end

--------------------------------------------------------------

   21   -1855.4527033227      8.82E-09 Convergence criterion met
 Total energy in the final basis set = -1855.45270332
   18   -1855.4613259610      6.63E-09 Convergence criterion met
 Total energy in the final basis set = -1855.46132596
   17   -1855.4623737518      9.85E-09 Convergence criterion met
 Total energy in the final basis set = -1855.46237375
   17   -1855.4625067085      8.10E-09 Convergence criterion met
 Total energy in the final basis set = -1855.46250671
   17   -1855.4625447926      8.22E-09 Convergence criterion met
 Total energy in the final basis set = -1855.46254479
   17   -1855.4624248360      7.67E-09 Convergence criterion met
 Total energy in the final basis set = -1855.46242484
   17   -1855.4624814938      5.07E-09 Convergence criterion met
 Total energy in the final basis set = -1855.46248149
   17   -1855.4624550698      4.73E-09 Convergence criterion met
 Total energy in the final basis set = -1855.46245507
   17   -1855.4624600454      5.76E-09 Convergence criterion met
 Total energy in the final basis set = -1855.46246005
   17   -1855.4624468849      7.76E-09 Convergence criterion met
 Total energy in the final basis set = -1855.46244688
   17   -1855.4624432533      8.03E-09 Convergence criterion met
 Total energy in the final basis set = -1855.46244325

             Standard Nuclear Orientation (Angstroms)
    I     Atom           X                Y                Z
 ----------------------------------------------------------------
    1      C       0.1531735041    -4.5212532495     1.1465809058
    2      C      -0.0230518751    -4.4042434693     2.6640263497
    3      C       1.6326021756    -4.1584177927     1.0221863213
    4      C       2.3971235424    -4.1507829408    -0.1290094005
    5      H       1.9546440505    -4.3880926372    -1.0894413613
    6      C       3.7439135329    -3.8221406824    -0.0329475928
    7      H       4.3577714961    -3.8048969727    -0.9243235617
    8      C       4.3085737031    -3.5105290038     1.2011744918
    9      H       5.3590568123    -3.2571287115     1.2595079791
   10      C       3.5387596921    -3.5209366679     2.3561573289
   11      H       3.9850437796    -3.2807668353     3.3131762701
   12      C       2.1932056507    -3.8491749959     2.2581321014
   13      C      -1.1624030122    -4.6249832945     3.4146927955
   14      H      -2.0844628354    -4.9515484099     2.9520051367
   15      C      -1.1139955992    -4.4153328476     4.7884917113
   16      H      -2.0009082217    -4.5819479263     5.3861348066
   17      C       0.0607089505    -3.9909950099     5.4007871287
   18      H       0.0799062734    -3.8284371997     6.4705135101
   19      C       1.2079133167    -3.7735227623     4.6489043407
   20      H       2.1221223002    -3.4435441733     5.1266428244
   21      C       1.1581022153    -3.9831136597     3.2790911547
   22      C      -2.1346856481    -3.6471582084     0.2133648151
   23      C      -2.9049367324    -2.5749408876    -0.1441998742
   24      H      -3.9554238465    -2.7413794845    -0.3571557521
   25      C      -2.4001237956    -1.2645741359    -0.2956369297
   26      C      -3.2442844831    -0.2132577577    -0.6500014357
   27      N      -3.9507683627     0.6638246677    -0.9498735885
   28      C      -0.7241850303    -3.4628119106     0.4718301731
   29      C      -0.2084994040    -2.1992802752     0.2804608166
   30      H       0.8441800052    -2.0165787940     0.4489753349
   31      C      -0.9781420496    -1.0933138416    -0.1133627184
   32      C      -0.3563995053     0.1444297077    -0.3185527799
   33      N       0.1509938987     1.1766660303    -0.4889641362
   34      H       5.3766748824    -6.6874617304    -0.7346077619
   35      H       7.1726862341    -8.0905679342     0.2631280173
   36      C       5.1324930978    -7.4800316054    -0.0412248769
   37      C       6.1367255003    -8.2674824698     0.5181612037
   38      C       3.8201318313    -7.7127961195     0.2850854955
   39      H       3.0509000492    -7.1024677072    -0.1630708330
   40      C       5.8098732308    -9.2926432973     1.3913866386
   41      H       6.6062189962    -9.9079755042     1.7866190530
   42      C       3.4925568436    -8.7329653618     1.2022918969
   43      C       4.4966120147    -9.5538827675     1.7536502825
   44      N       2.1758377032    -8.9299200766     1.5566056560
   45      C       2.7218218454   -10.7496744232     3.0405711574
   46      C       1.7821529337    -9.8544037366     2.4972459188
   47      H       2.9447575000   -12.4155137189     4.3664832111
   48      C       2.2580980221   -11.6942312686     3.9454700696
   49      C       0.4317063743    -9.8904207651     2.9034587744
   50      C       0.9278106879   -11.7475698189     4.3281988935
   51      C       0.0140501773   -10.8313261845     3.8108710484
   52      H      -0.2792889572    -9.1775366775     2.5139110263
   53      H       0.6037154377   -12.4986653444     5.0356654537
   54      H      -1.0214981812   -10.8543639134     4.1201526959
   55      C       4.1712330203   -10.7395852199     2.6287533999
   56      C       5.0595241719   -10.7280667853     3.8849091781
   57      C       4.4406831740   -12.0193612420     1.8048427417
   58      C       1.1614666737    -8.1380500296     0.9216345888
   59      C       0.3862927435    -8.6972273391    -0.0796951648
   60      C      -0.5910643583    -7.9015551053    -0.6354890660
   61      C      -0.7906859173    -6.5659392262    -0.2612177239
   62      C       0.0495985109    -5.9974904261     0.7026430166
   63      C       0.9886629456    -6.8323635122     1.3140532860
   64      H       1.6236248281    -6.4468499039     2.1009239429
   65      H       0.5275819196    -9.7224103952    -0.3963012967
   66      H      -1.2385237778    -8.3275679926    -1.3917697088
   67      C      -1.9621229631    -5.8661458282    -0.8867644483
   68      C      -2.7383022115    -5.0143039256     0.1168151036
   69      H      -2.6196193460    -6.6274315653    -1.3104778162
   70      H      -1.6430016668    -5.2415985845    -1.7261810019
   71      H      -2.7762320197    -5.5431141725     1.0753995252
   72      H      -3.7741620896    -4.9217416884    -0.2130460152
   73      H       3.8243426143   -12.0459918809     0.9060305517
   74      H       4.2189974686   -12.9062851725     2.3981328186
   75      H       5.4873966276   -12.0651582648     1.5051615273
   76      H       4.8766888244    -9.8379587057     4.4859286212
   77      H       6.1148782318   -10.7526313316     3.6198839200
   78      H       4.8726528742   -11.6037551459     4.5041528335
 ----------------------------------------------------------------

   17   -1855.4624408662      8.52E-09 Convergence criterion met
 Total energy in the final basis set = -1855.46244087
 Final energy is   -1855.46244086623
 **  OPTIMIZATION CONVERGED  **

                    Orbital Energies (a.u.)
 --------------------------------------------------------------

 Alpha MOs
 -- Occupied --
-14.774 -14.614 -14.611 -10.545 -10.544 -10.517 -10.503 -10.502
-10.502 -10.488 -10.485 -10.485 -10.484 -10.482 -10.481 -10.479
-10.479 -10.478 -10.477 -10.477 -10.473 -10.472 -10.467 -10.464
-10.464 -10.460 -10.460 -10.459 -10.458 -10.454 -10.452 -10.452
-10.452 -10.451 -10.451 -10.450 -10.449 -10.448 -10.448 -10.448
-10.446 -10.445 -10.443 -10.442 -10.438 -10.438 -10.437  -1.152
 -1.016  -1.004  -1.001  -0.992  -0.981  -0.980  -0.954  -0.952
 -0.945  -0.916  -0.908  -0.896  -0.878  -0.877  -0.873  -0.859
 -0.853  -0.842  -0.840  -0.836  -0.812  -0.810  -0.790  -0.776
 -0.764  -0.755  -0.745  -0.725  -0.715  -0.708  -0.705  -0.693
 -0.677  -0.670  -0.664  -0.659  -0.656  -0.651  -0.650  -0.631
 -0.607  -0.588  -0.578  -0.576  -0.574  -0.566  -0.563  -0.562
 -0.556  -0.549  -0.544  -0.535  -0.534  -0.527  -0.521  -0.517
 -0.516  -0.511  -0.509  -0.507  -0.501  -0.498  -0.490  -0.486
 -0.484  -0.477  -0.475  -0.473  -0.469  -0.466  -0.462  -0.460
 -0.456  -0.453  -0.448  -0.443  -0.441  -0.438  -0.430  -0.427
 -0.423  -0.420  -0.417  -0.414  -0.413  -0.410  -0.409  -0.402
 -0.402  -0.398  -0.397  -0.395  -0.390  -0.388  -0.377  -0.364
 -0.362  -0.355  -0.337  -0.330  -0.322  -0.318  -0.316  -0.308
 -0.298  -0.292  -0.288  -0.278  -0.258  -0.132

 Beta MOs
 -- Occupied --
-14.786 -14.611 -14.606 -10.543 -10.543 -10.516 -10.505 -10.505
-10.503 -10.489 -10.488 -10.487 -10.485 -10.485 -10.484 -10.477
-10.477 -10.477 -10.476 -10.476 -10.473 -10.473 -10.468 -10.465
-10.464 -10.460 -10.460 -10.459 -10.458 -10.454 -10.452 -10.452
-10.452 -10.451 -10.450 -10.449 -10.449 -10.448 -10.447 -10.446
-10.445 -10.443 -10.442 -10.441 -10.439 -10.437 -10.435  -1.170
 -1.017  -1.008  -1.005  -0.985  -0.983  -0.974  -0.954  -0.949
 -0.947  -0.915  -0.908  -0.899  -0.879  -0.877  -0.871  -0.858
 -0.856  -0.841  -0.839  -0.836  -0.813  -0.810  -0.792  -0.775
 -0.764  -0.760  -0.742  -0.725  -0.715  -0.710  -0.705  -0.692
 -0.677  -0.670  -0.664  -0.661  -0.656  -0.654  -0.651  -0.632
 -0.606  -0.593  -0.585  -0.579  -0.578  -0.566  -0.563  -0.563
 -0.556  -0.549  -0.544  -0.540  -0.534  -0.531  -0.524  -0.518
 -0.516  -0.511  -0.509  -0.506  -0.503  -0.497  -0.492  -0.488
 -0.484  -0.482  -0.481  -0.474  -0.470  -0.466  -0.460  -0.459
 -0.455  -0.454  -0.449  -0.442  -0.440  -0.437  -0.431  -0.428
 -0.423  -0.419  -0.417  -0.413  -0.413  -0.411  -0.408  -0.405
 -0.402  -0.398  -0.396  -0.390  -0.386  -0.382  -0.376  -0.361
 -0.352  -0.352  -0.342  -0.337  -0.331  -0.324  -0.320  -0.309
 -0.296  -0.289  -0.285  -0.277  -0.260  -0.242

          Ground-State Mulliken Net Atomic Charges

     Atom                 Charge (a.u.)    Spin (a.u.)
  --------------------------------------------------------
      1 C                    -0.393467      -0.015240
      2 C                     0.166779       0.003304
      3 C                     0.018593       0.004428
      4 C                    -0.273229      -0.000819
      5 H                     0.251380       0.000365
      6 C                    -0.257705       0.001371
      7 H                     0.248471      -0.000054
      8 C                    -0.241503      -0.001755
      9 H                     0.250115       0.000123
     10 C                    -0.353359       0.001610
     11 H                     0.242319      -0.000066
     12 C                     0.150850      -0.002872
     13 C                    -0.316772       0.014078
     14 H                     0.248374      -0.000818
     15 C                    -0.247313      -0.008964
     16 H                     0.248482       0.000536
     17 C                    -0.251470       0.014245
     18 H                     0.248637      -0.000863
     19 C                    -0.343741      -0.007638
     20 H                     0.240052       0.000536
     21 C                     0.104778       0.009625
     22 C                     0.088373       0.160231
     23 C                    -0.343275      -0.081271
     24 H                     0.231364       0.003072
     25 C                    -0.021181       0.315415
     26 C                    -0.060237      -0.079610
     27 N                    -0.316329       0.206784
     28 C                     0.110130       0.225619
     29 C                    -0.310241      -0.134536
     30 H                     0.251532       0.006633
     31 C                    -0.012526       0.259441
     32 C                    -0.048782      -0.065261
     33 N                    -0.307129       0.161354
     34 H                     0.278030      -0.005778
     35 H                     0.279894       0.013372
     36 C                    -0.248123       0.128121
     37 C                    -0.207726      -0.251372
     38 C                    -0.268475      -0.179241
     39 H                     0.313035       0.009839
     40 C                    -0.311003       0.149138
     41 H                     0.272016      -0.006948
     42 C                     0.309460       0.091650
     43 C                     0.184692      -0.226607
     44 N                    -0.607786      -0.434515
     45 C                     0.191259      -0.225981
     46 C                     0.303593       0.093286
     47 H                     0.272640      -0.006910
     48 C                    -0.312050       0.148437
     49 C                    -0.267917      -0.176924
     50 C                    -0.207971      -0.248040
     51 C                    -0.249694       0.126265
     52 H                     0.310616       0.009502
     53 H                     0.279964       0.013200
     54 H                     0.280228      -0.005686
     55 C                    -0.234897       0.037626
     56 C                    -0.630318      -0.017862
     57 C                    -0.609884      -0.026434
     58 C                     0.113457       0.034474
     59 C                    -0.223684      -0.023090
     60 C                    -0.322106       0.009234
     61 C                     0.062600      -0.013171
     62 C                     0.219937       0.015274
     63 C                    -0.246990      -0.024966
     64 H                     0.292561       0.001121
     65 H                     0.274740       0.001170
     66 H                     0.261063      -0.001229
     67 C                    -0.511888       0.008443
     68 C                    -0.556430      -0.014296
     69 H                     0.254044      -0.001129
     70 H                     0.263392      -0.001265
     71 H                     0.236847       0.011302
     72 H                     0.257162       0.000367
     73 H                     0.246682       0.001208
     74 H                     0.250453      -0.000763
     75 H                     0.251039      -0.000652
     76 H                     0.252963       0.000506
     77 H                     0.251431       0.000105
     78 H                     0.251176       0.000217
  --------------------------------------------------------
  Sum of atomic charges =     0.000000

                    Cartesian Multipole Moments
 -----------------------------------------------------------------
    Charge (ESU x 10^10)
                 0.0000
    Dipole Moment (Debye)
         X      20.0908      Y     -44.3302      Z      10.4414
       Tot      49.7777
    Quadrupole Moments (Debye-Ang)
        XX    -213.7217     XY    -104.3275     YY     136.2426
        XZ      14.3381     YZ     -85.9751     ZZ    -230.8631

 Total job time:  25156.65s(wall), 93428.65s(cpu)
        *  Thank you very much for using Q-Chem.  Have a nice day.  *
