 Q-Chem 5.0, Q-Chem, Inc., Pleasanton, CA (2017)
 Q-Chem 5.0.1 for Intel X86 EM64T Linux

User input:
--------------------------------------------------------------
$rem
threads 8
jobtype	sp
method PBEh-3c
basis def2-mSVP
mem_static	1024
mem_total	8000
sym_ignore	true
unrestricted true
scf_convergence	9
solvent_method	pcm
$end

$molecule
read incoords.mol
$end

$solvent
dielectric	2.38
$end

$pcm
theory iefpcm
$end
--------------------------------------------------------------

   17   -1855.5454670494      5.17E-10 Convergence criterion met
 Total energy in the final basis set = -1855.54546705
 Total job time:  2051.26s(wall), 7911.76s(cpu)
        *  Thank you very much for using Q-Chem.  Have a nice day.  *
 Q-Chem 5.0, Q-Chem, Inc., Pleasanton, CA (2017)
 Q-Chem 5.0.1 for Intel X86 EM64T Linux

User input:
--------------------------------------------------------------

$rem
threads 8
jobtype opt
method PBEh-3c
basis def2-mSVP
scf_guess	read
mem_static      1024
mem_total       8000
sym_ignore      true
unrestricted true
mom_start       1
scf_algorithm	diis
scf_max_cycles	250
solvent_method	pcm
geom_opt_tol_energy 25
geom_opt_tol_gradient 75
$end

$solvent
dielectric      2.38
$end

$pcm
theory iefpcm
$end

$occupied
1 2 3 4 5 6 7 8 9 10 11 12 13 14 15 16 17 18 19 20 21 22 23 24 25 26 27 28 29 30 31 32 33 34 35 36 37 38 39 40 41 42 43 44 45 46 47 48 49 50 51 52 53 54 55 56 57 58 59 60 61 62 63 64 65 66 67 68 69 70 71 72 73 74 75 76 77 78 79 80 81 82 83 84 85 86 87 88 89 90 91 92 93 94 95 96 97 98 99 100 101 102 103 104 105 106 107 108 109 110 111 112 113 114 115 116 117 118 119 120 121 122 123 124 125 126 127 128 129 130 131 132 133 134 135 136 137 138 139 140 141 142 143 144 145 146 147 148 149 150 151 152 153 154 155 156 157 159
1 2 3 4 5 6 7 8 9 10 11 12 13 14 15 16 17 18 19 20 21 22 23 24 25 26 27 28 29 30 31 32 33 34 35 36 37 38 39 40 41 42 43 44 45 46 47 48 49 50 51 52 53 54 55 56 57 58 59 60 61 62 63 64 65 66 67 68 69 70 71 72 73 74 75 76 77 78 79 80 81 82 83 84 85 86 87 88 89 90 91 92 93 94 95 96 97 98 99 100 101 102 103 104 105 106 107 108 109 110 111 112 113 114 115 116 117 118 119 120 121 122 123 124 125 126 127 128 129 130 131 132 133 134 135 136 137 138 139 140 141 142 143 144 145 146 147 148 149 150 151 152 153 154 155 156 157 158
$end

$molecule
read incoords.mol
$end

--------------------------------------------------------------

   21   -1855.4213350211      8.79E-09 Convergence criterion met
 Total energy in the final basis set = -1855.42133502
   17   -1855.4294456785      8.24E-09 Convergence criterion met
 Total energy in the final basis set = -1855.42944568
   18   -1855.4303567352      7.79E-09 Convergence criterion met
 Total energy in the final basis set = -1855.43035674
   17   -1855.4308108513      7.03E-09 Convergence criterion met
 Total energy in the final basis set = -1855.43081085
   17   -1855.4308019552      6.75E-09 Convergence criterion met
 Total energy in the final basis set = -1855.43080196
   17   -1855.4306501507      6.57E-09 Convergence criterion met
 Total energy in the final basis set = -1855.43065015
   16   -1855.4306667412      9.62E-09 Convergence criterion met
 Total energy in the final basis set = -1855.43066674
   16   -1855.4306753962      8.98E-09 Convergence criterion met
 Total energy in the final basis set = -1855.43067540
   16   -1855.4306556718      8.82E-09 Convergence criterion met
 Total energy in the final basis set = -1855.43065567
   17   -1855.4306441531      4.40E-09 Convergence criterion met
 Total energy in the final basis set = -1855.43064415
   16   -1855.4306474060      9.99E-09 Convergence criterion met
 Total energy in the final basis set = -1855.43064741

             Standard Nuclear Orientation (Angstroms)
    I     Atom           X                Y                Z
 ----------------------------------------------------------------
    1      C       0.1544632933    -4.5085042692     1.1392864862
    2      C       0.0075952434    -4.3722072843     2.6570399549
    3      C       1.6331114994    -4.1567765541     0.9842127692
    4      C       2.3709371468    -4.1497402130    -0.1841545177
    5      H       1.8997113246    -4.3707000156    -1.1346799825
    6      C       3.7198244554    -3.8225583492    -0.1197991356
    7      H       4.3083895464    -3.7882123400    -1.0278215660
    8      C       4.3140601842    -3.5175331473     1.1015157064
    9      H       5.3642089727    -3.2582076507     1.1353525844
   10      C       3.5713188071    -3.5290507884     2.2735656150
   11      H       4.0395009180    -3.2847771461     3.2189089453
   12      C       2.2224071889    -3.8503624741     2.2075895433
   13      C      -1.1255490040    -4.5552174388     3.4272730863
   14      H      -2.0645173805    -4.8514757598     2.9786717150
   15      C      -1.0507296543    -4.3307383286     4.7964344207
   16      H      -1.9337112210    -4.4621321329     5.4084401794
   17      C       0.1424626974    -3.9279548514     5.3865682570
   18      H       0.1802955954    -3.7496128354     6.4531761839
   19      C       1.2811514891    -3.7421651625     4.6146568089
   20      H       2.2070197916    -3.4188923327     5.0741865111
   21      C       1.2058302880    -3.9658014497     3.2488254263
   22      C      -2.1477664158    -3.6608432721     0.2376503349
   23      C      -2.9275187948    -2.5937392037    -0.1177209719
   24      H      -3.9833572200    -2.7627046366    -0.3006864025
   25      C      -2.4294003041    -1.2896761117    -0.3080576682
   26      C      -3.2936343816    -0.2499297743    -0.6617416368
   27      N      -4.0274812274     0.6016889937    -0.9610581263
   28      C      -0.7310359249    -3.4717988335     0.4508981946
   29      C      -0.2238251482    -2.2067710339     0.2243921279
   30      H       0.8320458402    -2.0173218122     0.3637985169
   31      C      -1.0035305366    -1.1151762671    -0.1694337102
   32      C      -0.3784419762     0.1171367821    -0.4207796586
   33      N       0.1457947789     1.1320351688    -0.6262572118
   34      H       5.4277394040    -6.5125653244    -0.4507654938
   35      H       7.2050918688    -7.9769373111     0.4940247850
   36      C       5.1716660528    -7.3525418214     0.1791092130
   37      C       6.1637052484    -8.1719928084     0.7108765429
   38      C       3.8522574049    -7.6106734713     0.4535251403
   39      H       3.0938293150    -6.9704872831     0.0292050984
   40      C       5.8188853296    -9.2512898479     1.5090457269
   41      H       6.6077563755    -9.8887467602     1.8829171268
   42      C       3.5054767405    -8.6874318289     1.2955495818
   43      C       4.4991166755    -9.5368550607     1.8236300965
   44      N       2.1800841791    -8.9144179790     1.5991061229
   45      C       2.7028071094   -10.7970354327     3.0150434065
   46      C       1.7736496934    -9.8765855361     2.4976389959
   47      H       2.9008608487   -12.5188087444     4.2713202639
   48      C       2.2232637682   -11.7763514346     3.8731965208
   49      C       0.4199563179    -9.9195488353     2.8907007606
   50      C       0.8886952353   -11.8385616602     4.2390197393
   51      C      -0.0131119247   -10.8949358600     3.7535840444
   52      H      -0.2790091148    -9.1806801712     2.5289665192
   53      H       0.5531320730   -12.6167206893     4.9109422432
   54      H      -1.0509549136   -10.9211497127     4.0544844406
   55      C       4.1565255482   -10.7762650048     2.6160074956
   56      C       5.0360339848   -10.8561780708     3.8749976101
   57      C       4.4176951028   -12.0021014424     1.7111423910
   58      C       1.1678970273    -8.1266683615     0.9564000377
   59      C       0.3941749737    -8.6971917728    -0.0411268896
   60      C      -0.5887263671    -7.9109101275    -0.5996303591
   61      C      -0.7965972000    -6.5738507703    -0.2339793556
   62      C       0.0454885575    -5.9925064846     0.7215494880
   63      C       0.9860346507    -6.8194297536     1.3403078599
   64      H       1.6123390181    -6.4219359029     2.1281628570
   65      H       0.5408643188    -9.7230978641    -0.3531528572
   66      H      -1.2347139865    -8.3450084234    -1.3526089959
   67      C      -1.9786784639    -5.8850361823    -0.8501982161
   68      C      -2.7443282917    -5.0316851106     0.1620673012
   69      H      -2.6350794663    -6.6529391104    -1.2651413123
   70      H      -1.6723540631    -5.2580075620    -1.6921448426
   71      H      -2.7620633229    -5.5593163698     1.1237117306
   72      H      -3.7866683877    -4.9497469494    -0.1502425277
   73      H       3.8058719912   -11.9670672402     0.8096177762
   74      H       4.1851521502   -12.9252387928     2.2422383496
   75      H       5.4644665044   -12.0391615317     1.4102448792
   76      H       4.8659612673    -9.9999473369     4.5264333956
   77      H       6.0932122679   -10.8854709714     3.6181886862
   78      H       4.8324356282   -11.7618487664     4.4435248437
 ----------------------------------------------------------------

   17   -1855.4306422176      4.78E-09 Convergence criterion met
 Total energy in the final basis set = -1855.43064222
 Final energy is   -1855.43064221760
 **  OPTIMIZATION CONVERGED  **

                    Orbital Energies (a.u.)
 --------------------------------------------------------------

 Alpha MOs
 -- Occupied --
-14.789 -14.589 -14.585 -10.560 -10.560 -10.526 -10.522 -10.519
-10.518 -10.501 -10.499 -10.499 -10.498 -10.497 -10.496 -10.494
-10.492 -10.487 -10.483 -10.483 -10.482 -10.479 -10.472 -10.468
-10.465 -10.459 -10.458 -10.455 -10.454 -10.454 -10.453 -10.453
-10.452 -10.449 -10.446 -10.445 -10.445 -10.442 -10.440 -10.436
-10.433 -10.430 -10.428 -10.427 -10.426 -10.422 -10.421  -1.166
 -1.023  -1.017  -1.011  -0.987  -0.967  -0.962  -0.955  -0.952
 -0.939  -0.913  -0.911  -0.909  -0.893  -0.878  -0.871  -0.870
 -0.859  -0.841  -0.838  -0.829  -0.811  -0.809  -0.809  -0.777
 -0.771  -0.768  -0.749  -0.727  -0.723  -0.717  -0.708  -0.688
 -0.679  -0.674  -0.669  -0.668  -0.662  -0.655  -0.649  -0.632
 -0.596  -0.592  -0.589  -0.583  -0.582  -0.579  -0.578  -0.565
 -0.555  -0.551  -0.548  -0.544  -0.541  -0.536  -0.534  -0.527
 -0.526  -0.515  -0.513  -0.506  -0.502  -0.496  -0.493  -0.489
 -0.487  -0.486  -0.483  -0.478  -0.475  -0.472  -0.470  -0.464
 -0.461  -0.458  -0.452  -0.451  -0.441  -0.437  -0.435  -0.430
 -0.426  -0.426  -0.417  -0.416  -0.415  -0.410  -0.406  -0.398
 -0.396  -0.390  -0.389  -0.385  -0.375  -0.375  -0.367  -0.347
 -0.343  -0.338  -0.336  -0.334  -0.332  -0.331  -0.323  -0.312
 -0.294  -0.289  -0.273  -0.262  -0.254  -0.111

 Beta MOs
 -- Occupied --
-14.801 -14.586 -14.581 -10.558 -10.558 -10.526 -10.522 -10.521
-10.521 -10.504 -10.502 -10.501 -10.501 -10.495 -10.494 -10.493
-10.490 -10.487 -10.484 -10.483 -10.482 -10.480 -10.472 -10.469
-10.466 -10.459 -10.458 -10.455 -10.454 -10.454 -10.453 -10.453
-10.452 -10.449 -10.446 -10.445 -10.445 -10.442 -10.441 -10.437
-10.433 -10.428 -10.426 -10.424 -10.423 -10.422 -10.419  -1.184
 -1.027  -1.021  -1.012  -0.988  -0.966  -0.961  -0.952  -0.949
 -0.936  -0.915  -0.910  -0.909  -0.895  -0.878  -0.873  -0.870
 -0.858  -0.843  -0.838  -0.824  -0.812  -0.810  -0.808  -0.778
 -0.776  -0.767  -0.747  -0.728  -0.725  -0.715  -0.709  -0.685
 -0.679  -0.676  -0.671  -0.667  -0.662  -0.655  -0.649  -0.633
 -0.602  -0.595  -0.593  -0.591  -0.582  -0.580  -0.579  -0.565
 -0.557  -0.553  -0.550  -0.545  -0.543  -0.538  -0.535  -0.528
 -0.526  -0.516  -0.513  -0.512  -0.506  -0.498  -0.496  -0.491
 -0.488  -0.486  -0.483  -0.478  -0.476  -0.473  -0.471  -0.469
 -0.461  -0.459  -0.452  -0.450  -0.449  -0.438  -0.435  -0.431
 -0.429  -0.423  -0.421  -0.419  -0.412  -0.409  -0.403  -0.398
 -0.395  -0.388  -0.385  -0.380  -0.371  -0.366  -0.357  -0.356
 -0.347  -0.340  -0.337  -0.334  -0.333  -0.328  -0.322  -0.314
 -0.300  -0.292  -0.287  -0.261  -0.255  -0.223

          Ground-State Mulliken Net Atomic Charges

     Atom                 Charge (a.u.)    Spin (a.u.)
  --------------------------------------------------------
      1 C                    -0.397668      -0.012224
      2 C                     0.176158       0.006276
      3 C                     0.019975       0.005407
      4 C                    -0.270123      -0.000411
      5 H                     0.246975       0.000578
      6 C                    -0.254205       0.001513
      7 H                     0.234788      -0.000066
      8 C                    -0.228162      -0.001715
      9 H                     0.235173       0.000134
     10 C                    -0.345569       0.001808
     11 H                     0.225369      -0.000067
     12 C                     0.156866      -0.003540
     13 C                    -0.304479       0.018761
     14 H                     0.238016      -0.001297
     15 C                    -0.234454      -0.011954
     16 H                     0.233963       0.000711
     17 C                    -0.239370       0.020045
     18 H                     0.233318      -0.001248
     19 C                    -0.335491      -0.009878
     20 H                     0.220844       0.000706
     21 C                     0.110188       0.011994
     22 C                     0.095119       0.177783
     23 C                    -0.329982      -0.102537
     24 H                     0.214650       0.004501
     25 C                    -0.007889       0.332011
     26 C                    -0.056612      -0.091749
     27 N                    -0.285603       0.202279
     28 C                     0.099797       0.240134
     29 C                    -0.299171      -0.141996
     30 H                     0.243005       0.007305
     31 C                     0.000021       0.250432
     32 C                    -0.045374      -0.068957
     33 N                    -0.277493       0.148147
     34 H                     0.270251      -0.005989
     35 H                     0.269472       0.013526
     36 C                    -0.236064       0.131655
     37 C                    -0.198685      -0.252264
     38 C                    -0.262721      -0.182696
     39 H                     0.318121       0.010062
     40 C                    -0.304391       0.148075
     41 H                     0.255645      -0.007003
     42 C                     0.300153       0.093012
     43 C                     0.187005      -0.224763
     44 N                    -0.607223      -0.438958
     45 C                     0.195454      -0.222254
     46 C                     0.291585       0.098748
     47 H                     0.256124      -0.006908
     48 C                    -0.305827       0.146107
     49 C                    -0.259683      -0.179229
     50 C                    -0.199405      -0.244203
     51 C                    -0.241436       0.128514
     52 H                     0.310468       0.009546
     53 H                     0.269617       0.013101
     54 H                     0.271983      -0.005877
     55 C                    -0.241906       0.037289
     56 C                    -0.622915      -0.016728
     57 C                    -0.599273      -0.025727
     58 C                     0.124973       0.034131
     59 C                    -0.225997      -0.027137
     60 C                    -0.313834       0.013248
     61 C                     0.067528      -0.019802
     62 C                     0.223053       0.020492
     63 C                    -0.258384      -0.027998
     64 H                     0.290204       0.001178
     65 H                     0.256855       0.001396
     66 H                     0.248695      -0.001471
     67 C                    -0.505794       0.009968
     68 C                    -0.551957      -0.014812
     69 H                     0.238477      -0.001452
     70 H                     0.270469      -0.001815
     71 H                     0.218679       0.013247
     72 H                     0.249790       0.000304
     73 H                     0.243435       0.001218
     74 H                     0.244588      -0.000799
     75 H                     0.246078      -0.000681
     76 H                     0.255329       0.000467
     77 H                     0.244671       0.000145
     78 H                     0.244215       0.000252
  --------------------------------------------------------
  Sum of atomic charges =     0.000000

                    Cartesian Multipole Moments
 -----------------------------------------------------------------
    Charge (ESU x 10^10)
                 0.0000
    Dipole Moment (Debye)
         X      18.6640      Y     -40.0344      Z       9.9324
       Tot      45.2741
    Quadrupole Moments (Debye-Ang)
        XX    -219.1655     XY     -96.8756     YY     102.6479
        XZ      13.3392     YZ     -80.4996     ZZ    -236.4644

 Total job time:  24968.51s(wall), 92763.84s(cpu)
        *  Thank you very much for using Q-Chem.  Have a nice day.  *
