 Q-Chem 5.0, Q-Chem, Inc., Pleasanton, CA (2017)
 Q-Chem 5.0.1 for Intel X86 EM64T Linux

User input:
--------------------------------------------------------------
$rem
threads 8
jobtype	sp
method PBEh-3c
basis def2-mSVP
mem_static	1024
mem_total	8000
sym_ignore	true
unrestricted true
scf_convergence	9
solvent_method	pcm
$end

$molecule
read incoords.mol
$end

$solvent
dielectric	1.0001
$end

$pcm
theory iefpcm
$end
--------------------------------------------------------------

   17   -1855.5301966305      8.88E-10 Convergence criterion met
 Total energy in the final basis set = -1855.53019663
 Total job time:  2082.34s(wall), 8123.26s(cpu)
        *  Thank you very much for using Q-Chem.  Have a nice day.  *
 Q-Chem 5.0, Q-Chem, Inc., Pleasanton, CA (2017)
 Q-Chem 5.0.1 for Intel X86 EM64T Linux

User input:
--------------------------------------------------------------

$rem
threads 8
jobtype opt
method PBEh-3c
basis def2-mSVP
scf_guess	read
mem_static      1024
mem_total       8000
sym_ignore      true
unrestricted true
mom_start       1
scf_algorithm	diis
scf_max_cycles	250
solvent_method	pcm
geom_opt_tol_energy 25
geom_opt_tol_gradient 75
$end

$solvent
dielectric      1.0001
$end

$pcm
theory iefpcm
$end

$occupied
1 2 3 4 5 6 7 8 9 10 11 12 13 14 15 16 17 18 19 20 21 22 23 24 25 26 27 28 29 30 31 32 33 34 35 36 37 38 39 40 41 42 43 44 45 46 47 48 49 50 51 52 53 54 55 56 57 58 59 60 61 62 63 64 65 66 67 68 69 70 71 72 73 74 75 76 77 78 79 80 81 82 83 84 85 86 87 88 89 90 91 92 93 94 95 96 97 98 99 100 101 102 103 104 105 106 107 108 109 110 111 112 113 114 115 116 117 118 119 120 121 122 123 124 125 126 127 128 129 130 131 132 133 134 135 136 137 138 139 140 141 142 143 144 145 146 147 148 149 150 151 152 153 154 155 156 157 159
1 2 3 4 5 6 7 8 9 10 11 12 13 14 15 16 17 18 19 20 21 22 23 24 25 26 27 28 29 30 31 32 33 34 35 36 37 38 39 40 41 42 43 44 45 46 47 48 49 50 51 52 53 54 55 56 57 58 59 60 61 62 63 64 65 66 67 68 69 70 71 72 73 74 75 76 77 78 79 80 81 82 83 84 85 86 87 88 89 90 91 92 93 94 95 96 97 98 99 100 101 102 103 104 105 106 107 108 109 110 111 112 113 114 115 116 117 118 119 120 121 122 123 124 125 126 127 128 129 130 131 132 133 134 135 136 137 138 139 140 141 142 143 144 145 146 147 148 149 150 151 152 153 154 155 156 157 158
$end

$molecule
read incoords.mol
$end

--------------------------------------------------------------

   62   -1855.3839059177      7.62E-09 Convergence criterion met
 Total energy in the final basis set = -1855.38390592

                    Orbital Energies (a.u.)
 --------------------------------------------------------------

 Alpha MOs
 -- Occupied --
-14.790 -14.592 -14.587 -10.554 -10.551 -10.527 -10.523 -10.516
-10.510 -10.497 -10.495 -10.495 -10.495 -10.494 -10.493 -10.492
-10.490 -10.488 -10.487 -10.485 -10.484 -10.482 -10.476 -10.473
-10.471 -10.462 -10.461 -10.458 -10.457 -10.457 -10.456 -10.456
-10.455 -10.452 -10.451 -10.449 -10.448 -10.447 -10.447 -10.442
-10.441 -10.441 -10.439 -10.436 -10.435 -10.434 -10.431  -1.161
 -1.024  -1.015  -1.014  -0.989  -0.975  -0.961  -0.958  -0.956
 -0.949  -0.920  -0.916  -0.910  -0.889  -0.882  -0.880  -0.867
 -0.864  -0.848  -0.843  -0.837  -0.817  -0.815  -0.813  -0.779
 -0.774  -0.767  -0.753  -0.731  -0.723  -0.720  -0.712  -0.693
 -0.683  -0.674  -0.673  -0.668  -0.667  -0.660  -0.658  -0.637
 -0.606  -0.593  -0.593  -0.588  -0.586  -0.580  -0.577  -0.570
 -0.561  -0.552  -0.551  -0.549  -0.543  -0.538  -0.535  -0.533
 -0.529  -0.519  -0.518  -0.511  -0.507  -0.501  -0.497  -0.494
 -0.491  -0.488  -0.486  -0.483  -0.479  -0.476  -0.475  -0.468
 -0.466  -0.462  -0.459  -0.454  -0.444  -0.441  -0.440  -0.433
 -0.432  -0.426  -0.422  -0.419  -0.418  -0.416  -0.408  -0.403
 -0.400  -0.396  -0.390  -0.383  -0.376  -0.372  -0.370  -0.353
 -0.343  -0.340  -0.339  -0.337  -0.335  -0.332  -0.327  -0.318
 -0.296  -0.293  -0.274  -0.268  -0.256  -0.077

 Beta MOs
 -- Occupied --
-14.803 -14.590 -14.584 -10.552 -10.549 -10.526 -10.523 -10.519
-10.512 -10.500 -10.498 -10.496 -10.496 -10.493 -10.493 -10.490
-10.490 -10.488 -10.485 -10.485 -10.484 -10.483 -10.476 -10.474
-10.472 -10.462 -10.461 -10.458 -10.457 -10.457 -10.456 -10.456
-10.455 -10.452 -10.451 -10.449 -10.448 -10.447 -10.445 -10.442
-10.439 -10.438 -10.438 -10.436 -10.435 -10.434 -10.432  -1.181
 -1.026  -1.018  -1.015  -0.991  -0.972  -0.963  -0.956  -0.955
 -0.946  -0.919  -0.916  -0.912  -0.890  -0.881  -0.880  -0.869
 -0.863  -0.850  -0.843  -0.834  -0.818  -0.816  -0.812  -0.779
 -0.773  -0.770  -0.752  -0.732  -0.724  -0.720  -0.713  -0.691
 -0.683  -0.675  -0.672  -0.670  -0.666  -0.660  -0.658  -0.638
 -0.606  -0.601  -0.595  -0.594  -0.588  -0.580  -0.577  -0.570
 -0.562  -0.555  -0.550  -0.550  -0.547  -0.539  -0.534  -0.534
 -0.529  -0.520  -0.518  -0.518  -0.511  -0.500  -0.500  -0.497
 -0.491  -0.488  -0.486  -0.483  -0.479  -0.477  -0.476  -0.470
 -0.467  -0.463  -0.458  -0.454  -0.451  -0.441  -0.438  -0.436
 -0.430  -0.427  -0.426  -0.419  -0.417  -0.415  -0.412  -0.404
 -0.399  -0.396  -0.388  -0.381  -0.374  -0.369  -0.360  -0.355
 -0.346  -0.341  -0.339  -0.337  -0.334  -0.334  -0.325  -0.318
 -0.302  -0.295  -0.291  -0.269  -0.257  -0.243

          Ground-State Mulliken Net Atomic Charges

     Atom                 Charge (a.u.)    Spin (a.u.)
  --------------------------------------------------------
      1 C                    -0.430550      -0.013774
      2 C                     0.141491       0.020399
      3 C                     0.063299       0.014902
      4 C                    -0.262575      -0.005116
      5 H                     0.226223       0.000998
      6 C                    -0.247298       0.006426
      7 H                     0.222513      -0.000331
      8 C                    -0.217836      -0.003060
      9 H                     0.220966       0.000195
     10 C                    -0.329208       0.003816
     11 H                     0.209219      -0.000062
     12 C                     0.154186      -0.003315
     13 C                    -0.276396       0.008549
     14 H                     0.219749      -0.000157
     15 C                    -0.226711      -0.004544
     16 H                     0.220353       0.000180
     17 C                    -0.222058       0.025238
     18 H                     0.219131      -0.001655
     19 C                    -0.326549      -0.013678
     20 H                     0.204549       0.000932
     21 C                     0.133085       0.019394
     22 C                     0.078669       0.104733
     23 C                    -0.323893      -0.057831
     24 H                     0.216876       0.002008
     25 C                     0.034722       0.213654
     26 C                    -0.037875      -0.057072
     27 N                    -0.206382       0.114562
     28 C                     0.178942       0.170182
     29 C                    -0.293819      -0.084318
     30 H                     0.249529       0.003834
     31 C                     0.050198       0.127789
     32 C                    -0.031544      -0.034927
     33 N                    -0.200784       0.071800
     34 H                     0.247913      -0.009638
     35 H                     0.243247       0.010750
     36 C                    -0.246012       0.178762
     37 C                    -0.192728      -0.210787
     38 C                    -0.257039      -0.198837
     39 H                     0.306303       0.010719
     40 C                    -0.298185       0.126948
     41 H                     0.225980      -0.006478
     42 C                     0.280779       0.110696
     43 C                     0.172152      -0.129514
     44 N                    -0.605817      -0.471858
     45 C                     0.198462      -0.232924
     46 C                     0.272022       0.142566
     47 H                     0.225174      -0.009481
     48 C                    -0.306676       0.169233
     49 C                    -0.280284      -0.101063
     50 C                    -0.204107      -0.158521
     51 C                    -0.230875       0.091094
     52 H                     0.286989       0.004450
     53 H                     0.242390       0.007524
     54 H                     0.244975      -0.004424
     55 C                    -0.238527       0.031458
     56 C                    -0.606205      -0.014304
     57 C                    -0.588597      -0.018975
     58 C                     0.154103       0.044877
     59 C                    -0.230797       0.001787
     60 C                    -0.300072      -0.001138
     61 C                     0.077230       0.003125
     62 C                     0.208026       0.028096
     63 C                    -0.275025      -0.034394
     64 H                     0.279510       0.001255
     65 H                     0.233470      -0.000679
     66 H                     0.229528      -0.000876
     67 C                    -0.512376       0.006304
     68 C                    -0.540534      -0.005495
     69 H                     0.233022      -0.000644
     70 H                     0.262105      -0.000766
     71 H                     0.225010       0.008559
     72 H                     0.246329       0.000085
     73 H                     0.236175       0.000963
     74 H                     0.231572       0.000507
     75 H                     0.232166      -0.000430
     76 H                     0.248580       0.000563
     77 H                     0.229968       0.000285
     78 H                     0.230454       0.000867
  --------------------------------------------------------
  Sum of atomic charges =     0.000000

                    Cartesian Multipole Moments
 -----------------------------------------------------------------
    Charge (ESU x 10^10)
                 0.0000
    Dipole Moment (Debye)
         X      11.5607      Y     -25.4646      Z       4.4814
       Tot      28.3228
    Quadrupole Moments (Debye-Ang)
        XX    -236.2774     XY     -50.4718     YY     -52.1760
        XZ       9.3533     YZ     -48.8052     ZZ    -245.6370

             Standard Nuclear Orientation (Angstroms)
    I     Atom           X                Y                Z
 ----------------------------------------------------------------
    1      C       0.1537522320    -4.5286295275     1.0801536467
    2      C       0.1619073380    -4.3765062210     2.6006791890
    3      C       1.6167965691    -4.2019516431     0.7770323559
    4      C       2.2329649820    -4.2093254317    -0.4585146755
    5      H       1.6651365693    -4.4222574810    -1.3564351013
    6      C       3.5897443363    -3.9179775961    -0.5291923744
    7      H       4.0864556338    -3.8985340765    -1.4908412834
    8      C       4.3104753928    -3.6319981156     0.6267882042
    9      H       5.3652981661    -3.4008114908     0.5550527499
   10      C       3.6901345222    -3.6289817286     1.8677321623
   11      H       4.2580310605    -3.4022594084     2.7610929744
   12      C       2.3338393284    -3.9150835392     1.9385791068
   13      C      -0.8991873921    -4.5509844136     3.4678651377
   14      H      -1.8755376841    -4.8386259782     3.0967646037
   15      C      -0.6947557559    -4.3311892889     4.8226525754
   16      H      -1.5158548633    -4.4557002669     5.5162230844
   17      C       0.5554958813    -3.9418564714     5.2974627821
   18      H       0.6954785968    -3.7664124154     6.3558868896
   19      C       1.6210452480    -3.7699456224     4.4263350576
   20      H       2.5895258759    -3.4641064325     4.8022034302
   21      C       1.4192658789    -3.9921164905     3.0725981214
   22      C      -2.1518250273    -3.6844131660     0.1358394280
   23      C      -2.9555986250    -2.6083792535    -0.1899140034
   24      H      -3.9782827672    -2.7976353251    -0.4924205158
   25      C      -2.5015752395    -1.2899666727    -0.1648932563
   26      C      -3.3791709700    -0.2372555280    -0.5122080904
   27      N      -4.1186727680     0.6035284178    -0.8025295992
   28      C      -0.8009286363    -3.4651201545     0.5138024183
   29      C      -0.3420420033    -2.1477797915     0.5279522984
   30      H       0.6790601055    -1.9362816473     0.8119010966
   31      C      -1.1421312929    -1.0664629970     0.1989545067
   32      C      -0.5857569898     0.2376724706     0.2306301653
   33      N      -0.1200711607     1.2940998104     0.2595743622
   34      H       5.3521922699    -6.3092431343    -0.1088767047
   35      H       7.1446271675    -7.8096656305     0.7965596125
   36      C       5.1052114814    -7.1924059556     0.4629965406
   37      C       6.1015651015    -8.0295303123     0.9758241242
   38      C       3.7832052439    -7.4919346797     0.6859922152
   39      H       3.0249220760    -6.8383866136     0.2784363925
   40      C       5.7551818389    -9.1493770521     1.7139125066
   41      H       6.5422579546    -9.7910646237     2.0868858355
   42      C       3.4373045092    -8.6227512213     1.4480594739
   43      C       4.4319196691    -9.4751608949     1.9828374076
   44      N       2.1073059411    -8.9089100041     1.6697876768
   45      C       2.6259349869   -10.8301315233     3.0451798232
   46      C       1.6943106162    -9.9244777153     2.5037853591
   47      H       2.8245838365   -12.5784415757     4.2529720770
   48      C       2.1357509746   -11.8561204446     3.8366768869
   49      C       0.3115614684   -10.0478793313     2.7825201939
   50      C       0.7747127972   -11.9894996644     4.1081982213
   51      C      -0.1318011791   -11.0728736804     3.5800542793
   52      H      -0.3965650100    -9.3374804032     2.3816760458
   53      H       0.4283641744   -12.8019033828     4.7312245583
   54      H      -1.1889423874   -11.1560390224     3.7915586973
   55      C       4.1036882341   -10.7382041324     2.7490517727
   56      C       4.8867415639   -10.7551336384     4.0750149406
   57      C       4.4985163518   -11.9535236697     1.8853281396
   58      C       1.1132760537    -8.1450439664     0.9930283633
   59      C       0.3927690774    -8.7140524271    -0.0488586858
   60      C      -0.5485211817    -7.9248968042    -0.6718405401
   61      C      -0.7549010104    -6.5821382643    -0.3349578193
   62      C       0.0087597980    -6.0104689300     0.6915512649
   63      C       0.8976493880    -6.8395983847     1.3718166656
   64      H       1.4834870632    -6.4389418838     2.1897017952
   65      H       0.5542846158    -9.7424104908    -0.3471022936
   66      H      -1.1502531910    -8.3583673443    -1.4605725979
   67      C      -1.8604177308    -5.8598161309    -1.0390525104
   68      C      -2.7197544591    -5.0555450761    -0.0567625554
   69      H      -2.4695508503    -6.5981654383    -1.5657554055
   70      H      -1.4710235164    -5.1865098319    -1.8071895030
   71      H      -2.8037184436    -5.6103831963     0.8852512452
   72      H      -3.7348420825    -4.9647664036    -0.4448983972
   73      H       3.9474349779   -11.9653279842     0.9447357671
   74      H       4.2936038714   -12.8892995729     2.4054129789
   75      H       5.5623649716   -11.9289539716     1.6498534594
   76      H       4.6162835291    -9.9055650780     4.7011539195
   77      H       5.9601619449   -10.7156477598     3.8981275674
   78      H       4.6968119527   -11.6653632794     4.6416367586
 ----------------------------------------------------------------
