 Q-Chem 5.0, Q-Chem, Inc., Pleasanton, CA (2017)
 Q-Chem 5.0.1 for Intel X86 EM64T Linux

User input:
--------------------------------------------------------------
$rem
threads 8
jobtype	sp
method PBEh-3c
basis def2-mSVP
mem_static	1024
mem_total	8000
sym_ignore	true
unrestricted true
scf_convergence	9
solvent_method	pcm
$end

$molecule
read incoords.mol
$end

$solvent
dielectric	2.03
$end

$pcm
theory iefpcm
$end
--------------------------------------------------------------

   17   -1855.5430037209      5.44E-10 Convergence criterion met
 Total energy in the final basis set = -1855.54300372
 Total job time:  1945.29s(wall), 7201.45s(cpu)
        *  Thank you very much for using Q-Chem.  Have a nice day.  *
 Q-Chem 5.0, Q-Chem, Inc., Pleasanton, CA (2017)
 Q-Chem 5.0.1 for Intel X86 EM64T Linux

User input:
--------------------------------------------------------------

$rem
threads 8
jobtype opt
method PBEh-3c
basis def2-mSVP
scf_guess	read
mem_static      1024
mem_total       8000
sym_ignore      true
unrestricted true
mom_start       1
scf_algorithm	diis
scf_max_cycles	250
solvent_method	pcm
geom_opt_tol_energy 25
geom_opt_tol_gradient 75
$end

$solvent
dielectric      2.03
$end
$pcm
theory iefpcm
$end

$occupied
1 2 3 4 5 6 7 8 9 10 11 12 13 14 15 16 17 18 19 20 21 22 23 24 25 26 27 28 29 30 31 32 33 34 35 36 37 38 39 40 41 42 43 44 45 46 47 48 49 50 51 52 53 54 55 56 57 58 59 60 61 62 63 64 65 66 67 68 69 70 71 72 73 74 75 76 77 78 79 80 81 82 83 84 85 86 87 88 89 90 91 92 93 94 95 96 97 98 99 100 101 102 103 104 105 106 107 108 109 110 111 112 113 114 115 116 117 118 119 120 121 122 123 124 125 126 127 128 129 130 131 132 133 134 135 136 137 138 139 140 141 142 143 144 145 146 147 148 149 150 151 152 153 154 155 156 157 159
1 2 3 4 5 6 7 8 9 10 11 12 13 14 15 16 17 18 19 20 21 22 23 24 25 26 27 28 29 30 31 32 33 34 35 36 37 38 39 40 41 42 43 44 45 46 47 48 49 50 51 52 53 54 55 56 57 58 59 60 61 62 63 64 65 66 67 68 69 70 71 72 73 74 75 76 77 78 79 80 81 82 83 84 85 86 87 88 89 90 91 92 93 94 95 96 97 98 99 100 101 102 103 104 105 106 107 108 109 110 111 112 113 114 115 116 117 118 119 120 121 122 123 124 125 126 127 128 129 130 131 132 133 134 135 136 137 138 139 140 141 142 143 144 145 146 147 148 149 150 151 152 153 154 155 156 157 158
$end

$molecule
read incoords.mol
$end

--------------------------------------------------------------

   21   -1855.4153063407      8.54E-09 Convergence criterion met
 Total energy in the final basis set = -1855.41530634
   17   -1855.4232949416      8.94E-09 Convergence criterion met
 Total energy in the final basis set = -1855.42329494
   18   -1855.4241072126      6.22E-09 Convergence criterion met
 Total energy in the final basis set = -1855.42410721
   17   -1855.4247378841      6.91E-09 Convergence criterion met
 Total energy in the final basis set = -1855.42473788
   17   -1855.4247366591      6.67E-09 Convergence criterion met
 Total energy in the final basis set = -1855.42473666
   17   -1855.4246625732      6.11E-09 Convergence criterion met
 Total energy in the final basis set = -1855.42466257
   17   -1855.4246131026      5.31E-09 Convergence criterion met
 Total energy in the final basis set = -1855.42461310
   16   -1855.4246690862      8.79E-09 Convergence criterion met
 Total energy in the final basis set = -1855.42466909
   16   -1855.4246251026      8.86E-09 Convergence criterion met
 Total energy in the final basis set = -1855.42462510
   16   -1855.4246205598      7.59E-09 Convergence criterion met
 Total energy in the final basis set = -1855.42462056
   16   -1855.4246145938      7.50E-09 Convergence criterion met
 Total energy in the final basis set = -1855.42461459
   16   -1855.4246107910      7.72E-09 Convergence criterion met
 Total energy in the final basis set = -1855.42461079

             Standard Nuclear Orientation (Angstroms)
    I     Atom           X                Y                Z
 ----------------------------------------------------------------
    1      C       0.1560002909    -4.5063897733     1.1346061948
    2      C       0.0179207322    -4.3647167906     2.6523206517
    3      C       1.6340546847    -4.1569692906     0.9701493442
    4      C       2.3640185878    -4.1505440646    -0.2031474384
    5      H       1.8853031338    -4.3691776562    -1.1504328413
    6      C       3.7134132792    -3.8236020997    -0.1480249596
    7      H       4.2951043317    -3.7867425247    -1.0604180429
    8      C       4.3160285681    -3.5194979889     1.0693595995
    9      H       5.3661508115    -3.2591280628     1.0960653484
   10      C       3.5811786089    -3.5307774823     2.2463596966
   11      H       4.0557074478    -3.2856395924     3.1882845848
   12      C       2.2315115440    -3.8504967063     2.1896915745
   13      C      -1.1126265395    -4.5396389037     3.4284152738
   14      H      -2.0553636762    -4.8307102914     2.9843396550
   15      C      -1.0300717265    -4.3109987424     4.7962119157
   16      H      -1.9109057107    -4.4352287002     5.4127846268
   17      C       0.1677890013    -3.9120181131     5.3794992896
   18      H       0.2112931463    -3.7299369087     6.4452324941
   19      C       1.3034302090    -3.7332924126     4.6015797480
   20      H       2.2324666541    -3.4114561897     5.0557086666
   21      C       1.2206435016    -3.9609659516     3.2369458836
   22      C      -2.1506976493    -3.6652757341     0.2428855422
   23      C      -2.9339944964    -2.5990144764    -0.1082004935
   24      H      -3.9910427985    -2.7688275045    -0.2832057610
   25      C      -2.4384807050    -1.2956271983    -0.3045033835
   26      C      -3.3076981693    -0.2573265468    -0.6530908227
   27      N      -4.0470265934     0.5905598974    -0.9477657462
   28      C      -0.7326592107    -3.4748404447     0.4445777903
   29      C      -0.2284635350    -2.2087137143     0.2119571611
   30      H       0.8281973528    -2.0176911565     0.3432296005
   31      C      -1.0118872452    -1.1200065119    -0.1777977922
   32      C      -0.3881415213     0.1123853361    -0.4372046936
   33      N       0.1373897910     1.1248852742    -0.6486042679
   34      H       5.4374686809    -6.4717472789    -0.3769658212
   35      H       7.2110240658    -7.9468401680     0.5593858542
   36      C       5.1789397536    -7.3219696717     0.2378720970
   37      C       6.1683632134    -8.1470619990     0.7651520027
   38      C       3.8578638635    -7.5870529029     0.4974734728
   39      H       3.1021087844    -6.9415229975     0.0764246829
   40      C       5.8195311479    -9.2386414688     1.5447177569
   41      H       6.6068496975    -9.8801023710     1.9148969191
   42      C       3.5067186007    -8.6765905620     1.3209624845
   43      C       4.4981093182    -9.5311344084     1.8452372882
   44      N       2.1793418630    -8.9116941121     1.6101869627
   45      C       2.6966233942   -10.8080130977     3.0106058989
   46      C       1.7696474639    -9.8829040496     2.4979100293
   47      H       2.8887482649   -12.5427577495     4.2499503749
   48      C       2.2131793479   -11.7959265715     3.8566189048
   49      C       0.4145970460    -9.9291141848     2.8855183063
   50      C       0.8770881063   -11.8616985527     4.2161743290
   51      C      -0.0222985820   -10.9129287951     3.7369358639
   52      H      -0.2820258256    -9.1855060798     2.5290393784
   53      H       0.5386635109   -12.6465231280     4.8788438200
   54      H      -1.0611969901   -10.9413288282     4.0339068174
   55      C       4.1518292955   -10.7830808909     2.6165022404
   56      C       5.0280110179   -10.8853681022     3.8759437696
   57      C       4.4134700291   -11.9943390932     1.6921824927
   58      C       1.1684599211    -8.1251514848     0.9644344207
   59      C       0.3963783870    -8.6980934550    -0.0333633773
   60      C      -0.5869233381    -7.9137373467    -0.5938622941
   61      C      -0.7963231980    -6.5761744412    -0.2307824323
   62      C       0.0451473663    -5.9921665064     0.7238382331
   63      C       0.9843972740    -6.8174964763     1.3462746973
   64      H       1.6069377104    -6.4179442224     2.1361396913
   65      H       0.5446504129    -9.7241899570    -0.3440584430
   66      H      -1.2321380824    -8.3497321061    -1.3464190945
   67      C      -1.9800172629    -5.8890194481    -0.8453528461
   68      C      -2.7444357941    -5.0373343519     0.1698512157
   69      H      -2.6356842541    -6.6576241842    -1.2604113704
   70      H      -1.6756609611    -5.2599420884    -1.6864298798
   71      H      -2.7571631502    -5.5658323450     1.1315108682
   72      H      -3.7881869505    -4.9582324193    -0.1385166151
   73      H       3.8032115015   -11.9449501202     0.7902554422
   74      H       4.1794575277   -12.9260244559     2.2076318355
   75      H       5.4605775353   -12.0273202263     1.3918713749
   76      H       4.8580140171   -10.0397825287     4.5410826376
   77      H       6.0858372250   -10.9127664224     3.6218098020
   78      H       4.8217379455   -11.7998653245     4.4289548096
 ----------------------------------------------------------------

   16   -1855.4246063490      7.75E-09 Convergence criterion met
 Total energy in the final basis set = -1855.42460635
 Final energy is   -1855.42460634903
 **  OPTIMIZATION CONVERGED  **

                    Orbital Energies (a.u.)
 --------------------------------------------------------------

 Alpha MOs
 -- Occupied --
-14.792 -14.584 -14.580 -10.563 -10.563 -10.528 -10.525 -10.522
-10.521 -10.504 -10.502 -10.501 -10.501 -10.501 -10.499 -10.498
-10.495 -10.488 -10.484 -10.483 -10.482 -10.481 -10.473 -10.472
-10.469 -10.459 -10.458 -10.455 -10.454 -10.454 -10.453 -10.453
-10.452 -10.448 -10.446 -10.445 -10.444 -10.442 -10.435 -10.432
-10.431 -10.427 -10.425 -10.423 -10.423 -10.419 -10.418  -1.169
 -1.026  -1.020  -1.011  -0.988  -0.966  -0.963  -0.952  -0.950
 -0.938  -0.915  -0.911  -0.910  -0.896  -0.878  -0.873  -0.871
 -0.859  -0.842  -0.838  -0.827  -0.814  -0.810  -0.808  -0.779
 -0.774  -0.768  -0.749  -0.729  -0.725  -0.717  -0.709  -0.688
 -0.679  -0.677  -0.672  -0.668  -0.662  -0.655  -0.648  -0.632
 -0.596  -0.594  -0.592  -0.584  -0.582  -0.582  -0.581  -0.565
 -0.556  -0.554  -0.549  -0.544  -0.543  -0.538  -0.538  -0.530
 -0.526  -0.516  -0.513  -0.506  -0.503  -0.497  -0.496  -0.490
 -0.489  -0.487  -0.483  -0.479  -0.477  -0.474  -0.471  -0.467
 -0.461  -0.460  -0.452  -0.450  -0.443  -0.438  -0.435  -0.432
 -0.428  -0.424  -0.420  -0.416  -0.415  -0.410  -0.406  -0.398
 -0.395  -0.389  -0.386  -0.381  -0.372  -0.370  -0.365  -0.347
 -0.343  -0.338  -0.337  -0.334  -0.332  -0.327  -0.323  -0.313
 -0.293  -0.288  -0.270  -0.259  -0.253  -0.107

 Beta MOs
 -- Occupied --
-14.804 -14.581 -14.576 -10.561 -10.561 -10.528 -10.525 -10.525
-10.524 -10.507 -10.506 -10.504 -10.504 -10.499 -10.497 -10.496
-10.493 -10.488 -10.485 -10.483 -10.483 -10.481 -10.473 -10.473
-10.470 -10.458 -10.458 -10.454 -10.454 -10.454 -10.453 -10.453
-10.452 -10.449 -10.446 -10.445 -10.444 -10.442 -10.436 -10.432
-10.432 -10.425 -10.423 -10.421 -10.420 -10.418 -10.416  -1.187
 -1.030  -1.024  -1.012  -0.989  -0.969  -0.957  -0.951  -0.944
 -0.934  -0.918  -0.910  -0.908  -0.899  -0.878  -0.876  -0.872
 -0.859  -0.844  -0.838  -0.822  -0.816  -0.809  -0.808  -0.780
 -0.778  -0.767  -0.748  -0.731  -0.727  -0.715  -0.710  -0.685
 -0.681  -0.678  -0.675  -0.666  -0.662  -0.655  -0.648  -0.632
 -0.604  -0.598  -0.594  -0.591  -0.583  -0.582  -0.580  -0.565
 -0.558  -0.555  -0.552  -0.545  -0.544  -0.539  -0.539  -0.531
 -0.525  -0.517  -0.515  -0.512  -0.505  -0.502  -0.495  -0.490
 -0.490  -0.487  -0.483  -0.480  -0.478  -0.475  -0.473  -0.470
 -0.462  -0.460  -0.454  -0.451  -0.449  -0.440  -0.437  -0.434
 -0.430  -0.423  -0.422  -0.420  -0.412  -0.408  -0.401  -0.397
 -0.394  -0.387  -0.382  -0.376  -0.367  -0.363  -0.360  -0.351
 -0.350  -0.343  -0.335  -0.333  -0.330  -0.324  -0.322  -0.315
 -0.302  -0.292  -0.287  -0.259  -0.253  -0.219

          Ground-State Mulliken Net Atomic Charges

     Atom                 Charge (a.u.)    Spin (a.u.)
  --------------------------------------------------------
      1 C                    -0.398238      -0.011422
      2 C                     0.176704       0.007279
      3 C                     0.020884       0.005852
      4 C                    -0.269623      -0.000332
      5 H                     0.246210       0.000638
      6 C                    -0.254426       0.001576
      7 H                     0.232935      -0.000070
      8 C                    -0.226390      -0.001649
      9 H                     0.232542       0.000132
     10 C                    -0.344061       0.001842
     11 H                     0.222475      -0.000065
     12 C                     0.157391      -0.003718
     13 C                    -0.302396       0.020028
     14 H                     0.236734      -0.001419
     15 C                    -0.232241      -0.012780
     16 H                     0.231387       0.000756
     17 C                    -0.237202       0.021780
     18 H                     0.230539      -0.001362
     19 C                    -0.334080      -0.010573
     20 H                     0.217439       0.000757
     21 C                     0.111178       0.012724
     22 C                     0.096006       0.181225
     23 C                    -0.327432      -0.106472
     24 H                     0.212115       0.004795
     25 C                    -0.005448       0.334690
     26 C                    -0.055720      -0.093934
     27 N                    -0.278976       0.200928
     28 C                     0.097144       0.242361
     29 C                    -0.297163      -0.142104
     30 H                     0.241144       0.007383
     31 C                     0.002656       0.246322
     32 C                    -0.044670      -0.068942
     33 N                    -0.271070       0.144486
     34 H                     0.269263      -0.006027
     35 H                     0.267286       0.013542
     36 C                    -0.234196       0.132284
     37 C                    -0.197140      -0.252135
     38 C                    -0.262504      -0.183293
     39 H                     0.320018       0.010097
     40 C                    -0.303445       0.147742
     41 H                     0.252602      -0.007009
     42 C                     0.298723       0.093443
     43 C                     0.187105      -0.224242
     44 N                    -0.607089      -0.439868
     45 C                     0.195978      -0.221321
     46 C                     0.289641       0.100098
     47 H                     0.253062      -0.006900
     48 C                    -0.304946       0.145507
     49 C                    -0.258318      -0.179710
     50 C                    -0.197922      -0.243083
     51 C                    -0.240071       0.128922
     52 H                     0.310542       0.009549
     53 H                     0.267496       0.013063
     54 H                     0.270258      -0.005917
     55 C                    -0.243018       0.037199
     56 C                    -0.621818      -0.016432
     57 C                    -0.597540      -0.025611
     58 C                     0.127976       0.033851
     59 C                    -0.226381      -0.028289
     60 C                    -0.312275       0.014599
     61 C                     0.068816      -0.021912
     62 C                     0.223941       0.022065
     63 C                    -0.262256      -0.028536
     64 H                     0.290316       0.001177
     65 H                     0.253584       0.001457
     66 H                     0.246410      -0.001545
     67 C                    -0.504859       0.010400
     68 C                    -0.550940      -0.014892
     69 H                     0.235896      -0.001535
     70 H                     0.271515      -0.001980
     71 H                     0.215689       0.013648
     72 H                     0.248641       0.000280
     73 H                     0.242925       0.001226
     74 H                     0.243508      -0.000814
     75 H                     0.245193      -0.000686
     76 H                     0.255574       0.000454
     77 H                     0.243534       0.000158
     78 H                     0.242875       0.000263
  --------------------------------------------------------
  Sum of atomic charges =     0.000000

                    Cartesian Multipole Moments
 -----------------------------------------------------------------
    Charge (ESU x 10^10)
                 0.0000
    Dipole Moment (Debye)
         X      18.3295      Y     -39.1591      Z       9.7610
       Tot      44.3247
    Quadrupole Moments (Debye-Ang)
        XX    -220.3187     XY     -94.9328     YY      95.6825
        XZ      13.3131     YZ     -79.2820     ZZ    -237.5887

 Total job time:  26544.49s(wall), 98196.67s(cpu)
        *  Thank you very much for using Q-Chem.  Have a nice day.  *
