 Q-Chem 5.0, Q-Chem, Inc., Pleasanton, CA (2017)
 Q-Chem 5.0.1 for Intel X86 EM64T Linux

User input:
--------------------------------------------------------------
$rem
threads 8
jobtype	sp
method PBEh-3c
basis def2-mSVP
mem_static	1024
mem_total	8000
sym_ignore	true
unrestricted true
scf_convergence	9
solvent_method	pcm
$end

$molecule
read incoords.mol
$end

$solvent
dielectric	4.33
$end

$pcm
theory iefpcm
$end
--------------------------------------------------------------

   17   -1855.5531255768      5.12E-10 Convergence criterion met
 Total energy in the final basis set = -1855.55312558
 Total job time:  2109.25s(wall), 8216.29s(cpu)
        *  Thank you very much for using Q-Chem.  Have a nice day.  *
 Q-Chem 5.0, Q-Chem, Inc., Pleasanton, CA (2017)
 Q-Chem 5.0.1 for Intel X86 EM64T Linux

User input:
--------------------------------------------------------------

$rem
threads 8
jobtype opt
method PBEh-3c
basis def2-mSVP
scf_guess	read
mem_static      1024
mem_total       8000
sym_ignore      true
unrestricted true
mom_start       1
scf_algorithm	diis
scf_max_cycles	250
solvent_method	pcm
geom_opt_tol_energy 25
geom_opt_tol_gradient 75
$end

$solvent
dielectric      4.33
$end

$pcm
theory iefpcm
$end

$occupied
1 2 3 4 5 6 7 8 9 10 11 12 13 14 15 16 17 18 19 20 21 22 23 24 25 26 27 28 29 30 31 32 33 34 35 36 37 38 39 40 41 42 43 44 45 46 47 48 49 50 51 52 53 54 55 56 57 58 59 60 61 62 63 64 65 66 67 68 69 70 71 72 73 74 75 76 77 78 79 80 81 82 83 84 85 86 87 88 89 90 91 92 93 94 95 96 97 98 99 100 101 102 103 104 105 106 107 108 109 110 111 112 113 114 115 116 117 118 119 120 121 122 123 124 125 126 127 128 129 130 131 132 133 134 135 136 137 138 139 140 141 142 143 144 145 146 147 148 149 150 151 152 153 154 155 156 157 159
1 2 3 4 5 6 7 8 9 10 11 12 13 14 15 16 17 18 19 20 21 22 23 24 25 26 27 28 29 30 31 32 33 34 35 36 37 38 39 40 41 42 43 44 45 46 47 48 49 50 51 52 53 54 55 56 57 58 59 60 61 62 63 64 65 66 67 68 69 70 71 72 73 74 75 76 77 78 79 80 81 82 83 84 85 86 87 88 89 90 91 92 93 94 95 96 97 98 99 100 101 102 103 104 105 106 107 108 109 110 111 112 113 114 115 116 117 118 119 120 121 122 123 124 125 126 127 128 129 130 131 132 133 134 135 136 137 138 139 140 141 142 143 144 145 146 147 148 149 150 151 152 153 154 155 156 157 158
$end

$molecule
read incoords.mol
$end

--------------------------------------------------------------

   21   -1855.4393001706      9.69E-09 Convergence criterion met
 Total energy in the final basis set = -1855.43930017
   17   -1855.4476999256      7.26E-09 Convergence criterion met
 Total energy in the final basis set = -1855.44769993
   17   -1855.4487372688      7.49E-09 Convergence criterion met
 Total energy in the final basis set = -1855.44873727
   17   -1855.4488899233      7.12E-09 Convergence criterion met
 Total energy in the final basis set = -1855.44888992
   17   -1855.4489173081      7.02E-09 Convergence criterion met
 Total energy in the final basis set = -1855.44891731
   17   -1855.4487174493      7.80E-09 Convergence criterion met
 Total energy in the final basis set = -1855.44871745
   17   -1855.4488225301      5.23E-09 Convergence criterion met
 Total energy in the final basis set = -1855.44882253
   17   -1855.4487944085      5.05E-09 Convergence criterion met
 Total energy in the final basis set = -1855.44879441
   17   -1855.4487620670      4.88E-09 Convergence criterion met
 Total energy in the final basis set = -1855.44876207
   17   -1855.4487358634      5.39E-09 Convergence criterion met
 Total energy in the final basis set = -1855.44873586
   17   -1855.4487265666      5.77E-09 Convergence criterion met
 Total energy in the final basis set = -1855.44872657

             Standard Nuclear Orientation (Angstroms)
    I     Atom           X                Y                Z
 ----------------------------------------------------------------
    1      C       0.1525487348    -4.5123220168     1.1448337788
    2      C      -0.0063314648    -4.3827327018     2.6626854277
    3      C       1.6311860751    -4.1543507269     1.0015304983
    4      C       2.3800199401    -4.1486573924    -0.1598734259
    5      H       1.9214594261    -4.3796217977    -1.1142561691
    6      C       3.7280763722    -3.8206943537    -0.0827622460
    7      H       4.3276912131    -3.7965584418    -0.9837311021
    8      C       4.3101193984    -3.5107968409     1.1434624022
    9      H       5.3607473834    -3.2550260981     1.1870312390
   10      C       3.5561016152    -3.5197516238     2.3085464294
   11      H       4.0152706750    -3.2762204520     3.2585417241
   12      C       2.2085554049    -3.8445752887     2.2295665453
   13      C      -1.1410560067    -4.5834803325     3.4258350095
   14      H      -2.0728026523    -4.8956403331     2.9727992444
   15      C      -1.0766066357    -4.3647289323     4.7970764227
   16      H      -1.9604514979    -4.5128717116     5.4040150956
   17      C       0.1088054826    -3.9505798695     5.3951748023
   18      H       0.1396472428    -3.7788409479     6.4631521426
   19      C       1.2502376267    -3.7499454956     4.6305154272
   20      H       2.1713469084    -3.4226988802     5.0967299835
   21      C       1.1847109644    -3.9681354534     3.2629777199
   22      C      -2.1438233994    -3.6552373626     0.2252406164
   23      C      -2.9194718693    -2.5879042918    -0.1360010367
   24      H      -3.9721816197    -2.7577044806    -0.3351452841
   25      C      -2.4191821770    -1.2801527365    -0.3103622310
   26      C      -3.2736606628    -0.2372206738    -0.6700871168
   27      N      -3.9940696674     0.6255591428    -0.9749495941
   28      C      -0.7307037432    -3.4659107171     0.4630399469
   29      C      -0.2202019598    -2.2021019976     0.2513852352
   30      H       0.8337516383    -2.0145663147     0.4065875210
   31      C      -0.9955465543    -1.1047385612    -0.1472362815
   32      C      -0.3735019205     0.1303052533    -0.3777755145
   33      N       0.1406237390     1.1547216751    -0.5680601808
   34      H       5.4133271948    -6.5824503683    -0.5647336637
   35      H       7.1961681157    -8.0258535927     0.4000022336
   36      C       5.1606233995    -7.4039455397     0.0906579004
   37      C       6.1567059408    -8.2126168521     0.6328098565
   38      C       3.8437259530    -7.6507518314     0.3867631942
   39      H       3.0815018166    -7.0211188219    -0.0463352546
   40      C       5.8178187109    -9.2709470449     1.4608364399
   41      H       6.6088999085    -9.9012765235     1.8422633957
   42      C       3.5034177790    -8.7053767075     1.2589703114
   43      C       4.5001900828    -9.5456087934     1.7950991114
   44      N       2.1812820763    -8.9186177428     1.5843279774
   45      C       2.7112277834   -10.7788048299     3.0251810496
   46      C       1.7789627779    -9.8657925211     2.4994093268
   47      H       2.9168636636   -12.4818608897     4.3058528482
   48      C       2.2369384338   -11.7452460440     3.9008858423
   49      C       0.4267263150    -9.9042545337     2.8988355802
   50      C       0.9043106435   -11.8019224696     4.2747739254
   51      C      -0.0010951828   -10.8664508831     3.7788011723
   52      H      -0.2765315720    -9.1742643793     2.5274515154
   53      H       0.5724835597   -12.5700628170     4.9599825879
   54      H      -1.0378171040   -10.8901285170     4.0839234801
   55      C       4.1625473283   -10.7650962936     2.6186740650
   56      C       5.0482666256   -10.8145073211     3.8751883895
   57      C       4.4208592164   -12.0114201887     1.7411750990
   58      C       1.1684051076    -8.1287909656     0.9446725799
   59      C       0.3950176483    -8.6950957344    -0.0547866083
   60      C      -0.5867951330    -7.9064124162    -0.6120193334
   61      C      -0.7934076096    -6.5705061506    -0.2421367664
   62      C       0.0474828700    -5.9933658297     0.7163769020
   63      C       0.9889417021    -6.8223546704     1.3318576488
   64      H       1.6195307357    -6.4292216413     2.1184147114
   65      H       0.5406154279    -9.7205601096    -0.3686192459
   66      H      -1.2327651987    -8.3380225683    -1.3664176637
   67      C      -1.9728065276    -5.8798435253    -0.8623204052
   68      C      -2.7428358260    -5.0250688061     0.1441976624
   69      H      -2.6296820864    -6.6470218052    -1.2770037107
   70      H      -1.6633413724    -5.2569479460    -1.7063747098
   71      H      -2.7687546553    -5.5500376383     1.1060800502
   72      H      -3.7825490688    -4.9396970951    -0.1756053990
   73      H       3.8048580233   -11.9960155078     0.8419114869
   74      H       4.1909507680   -12.9212316775     2.2956747355
   75      H       5.4667958771   -12.0542355367     1.4382712412
   76      H       4.8772568000    -9.9448869943     4.5085653613
   77      H       6.1040785593   -10.8447760182     3.6127188223
   78      H       4.8497634821   -11.7089991020     4.4630022272
 ----------------------------------------------------------------

   17   -1855.4487346024      6.82E-09 Convergence criterion met
 Total energy in the final basis set = -1855.44873460
 Final energy is   -1855.44873460243
 **  OPTIMIZATION CONVERGED  **

                    Orbital Energies (a.u.)
 --------------------------------------------------------------

 Alpha MOs
 -- Occupied --
-14.781 -14.603 -14.600 -10.551 -10.551 -10.521 -10.511 -10.509
-10.509 -10.492 -10.490 -10.489 -10.488 -10.486 -10.486 -10.486
-10.485 -10.485 -10.483 -10.479 -10.477 -10.475 -10.467 -10.459
-10.459 -10.458 -10.457 -10.456 -10.455 -10.454 -10.454 -10.453
-10.452 -10.452 -10.452 -10.450 -10.448 -10.447 -10.447 -10.442
-10.442 -10.439 -10.437 -10.435 -10.435 -10.431 -10.430  -1.157
 -1.017  -1.008  -1.008  -0.983  -0.981  -0.970  -0.953  -0.952
 -0.946  -0.915  -0.909  -0.902  -0.883  -0.878  -0.872  -0.860
 -0.859  -0.841  -0.838  -0.836  -0.812  -0.810  -0.798  -0.775
 -0.767  -0.761  -0.746  -0.725  -0.717  -0.714  -0.706  -0.691
 -0.677  -0.670  -0.665  -0.663  -0.658  -0.655  -0.650  -0.632
 -0.602  -0.587  -0.582  -0.581  -0.578  -0.570  -0.569  -0.565
 -0.553  -0.549  -0.544  -0.541  -0.533  -0.531  -0.527  -0.524
 -0.518  -0.514  -0.511  -0.507  -0.501  -0.497  -0.489  -0.486
 -0.483  -0.482  -0.478  -0.476  -0.473  -0.465  -0.464  -0.462
 -0.459  -0.456  -0.451  -0.445  -0.441  -0.438  -0.431  -0.429
 -0.425  -0.421  -0.417  -0.415  -0.411  -0.407  -0.404  -0.403
 -0.401  -0.397  -0.396  -0.390  -0.389  -0.383  -0.374  -0.357
 -0.352  -0.345  -0.337  -0.334  -0.326  -0.324  -0.320  -0.310
 -0.296  -0.290  -0.282  -0.271  -0.257  -0.123

 Beta MOs
 -- Occupied --
-14.792 -14.600 -14.595 -10.550 -10.549 -10.520 -10.512 -10.512
-10.510 -10.494 -10.493 -10.492 -10.492 -10.486 -10.485 -10.484
-10.484 -10.483 -10.482 -10.479 -10.478 -10.476 -10.467 -10.459
-10.459 -10.458 -10.457 -10.456 -10.456 -10.454 -10.454 -10.453
-10.453 -10.452 -10.452 -10.450 -10.448 -10.447 -10.447 -10.442
-10.438 -10.437 -10.435 -10.434 -10.433 -10.432 -10.428  -1.176
 -1.020  -1.012  -1.011  -0.985  -0.975  -0.963  -0.956  -0.953
 -0.942  -0.913  -0.908  -0.906  -0.886  -0.877  -0.870  -0.863
 -0.858  -0.842  -0.839  -0.831  -0.812  -0.809  -0.800  -0.774
 -0.768  -0.766  -0.744  -0.726  -0.717  -0.714  -0.706  -0.689
 -0.678  -0.669  -0.667  -0.662  -0.661  -0.655  -0.651  -0.633
 -0.601  -0.594  -0.585  -0.585  -0.582  -0.571  -0.570  -0.565
 -0.554  -0.550  -0.544  -0.544  -0.539  -0.531  -0.528  -0.526
 -0.519  -0.514  -0.511  -0.506  -0.506  -0.497  -0.492  -0.489
 -0.488  -0.483  -0.480  -0.477  -0.473  -0.466  -0.465  -0.463
 -0.460  -0.455  -0.452  -0.445  -0.443  -0.438  -0.431  -0.427
 -0.425  -0.421  -0.419  -0.415  -0.411  -0.411  -0.407  -0.399
 -0.398  -0.396  -0.394  -0.388  -0.381  -0.372  -0.370  -0.351
 -0.349  -0.343  -0.342  -0.339  -0.335  -0.330  -0.321  -0.311
 -0.294  -0.291  -0.288  -0.269  -0.258  -0.234

          Ground-State Mulliken Net Atomic Charges

     Atom                 Charge (a.u.)    Spin (a.u.)
  --------------------------------------------------------
      1 C                    -0.395826      -0.014276
      2 C                     0.171846       0.004232
      3 C                     0.019109       0.004725
      4 C                    -0.271828      -0.000705
      5 H                     0.249664       0.000449
      6 C                    -0.255728       0.001464
      7 H                     0.242167      -0.000062
      8 C                    -0.235146      -0.001817
      9 H                     0.243565       0.000133
     10 C                    -0.350022       0.001731
     11 H                     0.234715      -0.000069
     12 C                     0.154001      -0.003140
     13 C                    -0.311076       0.015702
     14 H                     0.243204      -0.000997
     15 C                    -0.241634      -0.010027
     16 H                     0.242096       0.000599
     17 C                    -0.246015       0.016219
     18 H                     0.241951      -0.000994
     19 C                    -0.340221      -0.008431
     20 H                     0.231562       0.000598
     21 C                     0.107427       0.010487
     22 C                     0.092038       0.167056
     23 C                    -0.337719      -0.090076
     24 H                     0.223465       0.003639
     25 C                    -0.015283       0.322849
     26 C                    -0.058974      -0.084867
     27 N                    -0.303969       0.205374
     28 C                     0.106161       0.232570
     29 C                    -0.305209      -0.138956
     30 H                     0.248191       0.006966
     31 C                    -0.007327       0.257551
     32 C                    -0.047311      -0.067401
     33 N                    -0.295147       0.156584
     34 H                     0.274218      -0.005868
     35 H                     0.275550       0.013435
     36 C                    -0.242638       0.129530
     37 C                    -0.203582      -0.251708
     38 C                    -0.266070      -0.180594
     39 H                     0.315047       0.009950
     40 C                    -0.307959       0.148564
     41 H                     0.264846      -0.006968
     42 C                     0.305289       0.091969
     43 C                     0.185681      -0.225541
     44 N                    -0.607796      -0.436270
     45 C                     0.193357      -0.224119
     46 C                     0.297648       0.095300
     47 H                     0.265397      -0.006905
     48 C                    -0.309320       0.147333
     49 C                    -0.263913      -0.177788
     50 C                    -0.204047      -0.246447
     51 C                    -0.246002       0.127172
     52 H                     0.310403       0.009514
     53 H                     0.275668       0.013159
     54 H                     0.276797      -0.005766
     55 C                    -0.238283       0.037435
     56 C                    -0.627565      -0.017202
     57 C                    -0.604885      -0.026224
     58 C                     0.120371       0.034588
     59 C                    -0.224867      -0.025127
     60 C                    -0.318351       0.011033
     61 C                     0.064548      -0.016218
     62 C                     0.221027       0.017569
     63 C                    -0.253115      -0.026828
     64 H                     0.291727       0.001176
     65 H                     0.267089       0.001286
     66 H                     0.255767      -0.001344
     67 C                    -0.509029       0.009045
     68 C                    -0.554645      -0.014498
     69 H                     0.246998      -0.001260
     70 H                     0.266858      -0.001499
     71 H                     0.228469       0.012057
     72 H                     0.253685       0.000342
     73 H                     0.245042       0.001226
     74 H                     0.247903      -0.000794
     75 H                     0.248928      -0.000682
     76 H                     0.254251       0.000478
     77 H                     0.248480       0.000136
     78 H                     0.248298       0.000243
  --------------------------------------------------------
  Sum of atomic charges =     0.000000

                    Cartesian Multipole Moments
 -----------------------------------------------------------------
    Charge (ESU x 10^10)
                 0.0000
    Dipole Moment (Debye)
         X      19.5785      Y     -42.4927      Z      10.3766
       Tot      47.9231
    Quadrupole Moments (Debye-Ang)
        XX    -216.2276     XY    -101.3124     YY     122.5799
        XZ      13.8072     YZ     -83.9301     ZZ    -233.6248

 Total job time:  25904.82s(wall), 96119.93s(cpu)
        *  Thank you very much for using Q-Chem.  Have a nice day.  *
