 Q-Chem 5.1, Q-Chem, Inc., Pleasanton, CA (2018)
 Q-Chem 5.1.1 for Intel X86 EM64T Linux

User input:
--------------------------------------------------------------
$rem
threads 8
jobtype	sp
method PBEh-3c
basis def2-mSVP
mem_static	1024
mem_total	8000
sym_ignore	true
unrestricted true
scf_convergence	9
solvent_method	pcm
$end

$molecule
read moms1opt_chx.mol
$end

$solvent
dielectric	1.0001
$end

$pcm
theory iefpcm
$end
--------------------------------------------------------------

   17   -1855.5185002424      4.18e-10  Convergence criterion met
 Total energy in the final basis set =    -1855.5185002424
 Total job time:  1272.50s(wall), 9443.00s(cpu)
        *  Thank you very much for using Q-Chem.  Have a nice day.  *
 Q-Chem 5.1, Q-Chem, Inc., Pleasanton, CA (2018)
 Q-Chem 5.1.1 for Intel X86 EM64T Linux

User input:
--------------------------------------------------------------

$rem
threads 8
jobtype opt
method PBEh-3c
basis def2-mSVP
scf_guess	read
mem_static      1024
mem_total       8000
sym_ignore      true
unrestricted true
mom_start       1
scf_algorithm	diis
scf_max_cycles	500
scf_convergence 6
solvent_method	pcm
geom_opt_tol_energy 25
geom_opt_tol_gradient 75
$end

$solvent
dielectric      1.0001
$end

$pcm
theory iefpcm
$end

$occupied
1 2 3 4 5 6 7 8 9 10 11 12 13 14 15 16 17 18 19 20 21 22 23 24 25 26 27 28 29 30 31 32 33 34 35 36 37 38 39 40 41 42 43 44 45 46 47 48 49 50 51 52 53 54 55 56 57 58 59 60 61 62 63 64 65 66 67 68 69 70 71 72 73 74 75 76 77 78 79 80 81 82 83 84 85 86 87 88 89 90 91 92 93 94 95 96 97 98 99 100 101 102 103 104 105 106 107 108 109 110 111 112 113 114 115 116 117 118 119 120 121 122 123 124 125 126 127 128 129 130 131 132 133 134 135 136 137 138 139 140 141 142 143 144 145 146 147 148 149 150 151 152 153 154 155 156 157 159
1 2 3 4 5 6 7 8 9 10 11 12 13 14 15 16 17 18 19 20 21 22 23 24 25 26 27 28 29 30 31 32 33 34 35 36 37 38 39 40 41 42 43 44 45 46 47 48 49 50 51 52 53 54 55 56 57 58 59 60 61 62 63 64 65 66 67 68 69 70 71 72 73 74 75 76 77 78 79 80 81 82 83 84 85 86 87 88 89 90 91 92 93 94 95 96 97 98 99 100 101 102 103 104 105 106 107 108 109 110 111 112 113 114 115 116 117 118 119 120 121 122 123 124 125 126 127 128 129 130 131 132 133 134 135 136 137 138 139 140 141 142 143 144 145 146 147 148 149 150 151 152 153 154 155 156 157 158
$end

$molecule
read
$end

--------------------------------------------------------------

   14   -1855.3924225278      4.76E-07 Convergence criterion met
 Total energy in the final basis set = -1855.39242253
   10   -1855.3928455129      8.23E-07 Convergence criterion met
 Total energy in the final basis set = -1855.39284551
   10   -1855.3923009842      8.83E-07 Convergence criterion met
 Total energy in the final basis set = -1855.39230098
    8   -1855.3928255511      7.55E-07 Convergence criterion met
 Total energy in the final basis set = -1855.39282555
    8   -1855.3929618660      7.29E-07 Convergence criterion met
 Total energy in the final basis set = -1855.39296187
    7   -1855.3930211879      7.05E-07 Convergence criterion met
 Total energy in the final basis set = -1855.39302119
    6   -1855.3930098994      5.09E-07 Convergence criterion met
    6   -1855.3915602846      5.97E-07 Convergence criterion met
 Total energy in the final basis set = -1855.39156028
    5   -1855.3916065824      8.28E-07 Convergence criterion met
 Total energy in the final basis set = -1855.39160658
    6   -1855.3916692260      4.92E-07 Convergence criterion met
 Total energy in the final basis set = -1855.39166923
    6   -1855.3917741449      8.18E-07 Convergence criterion met
 Total energy in the final basis set = -1855.39177414
    6   -1855.3918322444      3.92E-07 Convergence criterion met
 Total energy in the final basis set = -1855.39183224
    5   -1855.3918535788      6.82E-07 Convergence criterion met
 Total energy in the final basis set = -1855.39185358

             Standard Nuclear Orientation (Angstroms)
    I     Atom           X                Y                Z
 ----------------------------------------------------------------
    1      N       0.0805654492     0.1744366808     0.1168744143
    2      C       0.0747495763     0.1073845685     1.4996918545
    3      C       1.2548776081     0.2942411245    -0.5964602772
    4      C       1.2550856859    -0.2186451009     2.1906196887
    5      C       1.1995370259    -0.2456984519     3.5740017738
    6      H       2.0793725671    -0.5008172324     4.1457856489
    7      C       0.0267489536     0.0458504386     4.2575783345
    8      H       0.0198101823     0.0212963901     5.3386936291
    9      C      -1.1302255927     0.3763759654     3.5614740465
   10      H      -2.0397787944     0.6213694185     4.0913492938
   11      C      -1.1125450990     0.4107806478     2.1864967476
   12      H      -1.9982462551     0.6998166823     1.6393639937
   13      C       2.4811315286     0.0492900591     0.0599813655
   14      C       3.6448308146     0.2905212280    -0.6467396201
   15      H       4.6047110133     0.1258387119    -0.1799350025
   16      C       3.6169072991     0.7272447827    -1.9666339868
   17      H       4.5466681467     0.9200374887    -2.4842624536
   18      C       2.4045061072     0.8820581973    -2.6269535081
   19      H       2.3652054206     1.1896548463    -3.6624361063
   20      C       1.2260279404     0.6502707377    -1.9577456156
   21      H       0.2938383647     0.7658948374    -2.4907381699
   22      C      -1.1805251640     0.1315977035    -0.5559105175
   23      C      -1.6595541568     1.2343048904    -1.2318716610
   24      H      -1.0915718372     2.1561601518    -1.2146516955
   25      C      -1.9058408608    -1.0515160527    -0.5078605910
   26      H      -1.5308034725    -1.9195572258     0.0186982898
   27      C      -3.1237937091    -1.0791923475    -1.1526205501
   28      H      -3.7232936840    -1.9792381399    -1.0992335583
   29      C      -2.8583689008     1.1828211845    -1.9516596966
   30      C      -3.6205104150     0.0122844728    -1.8756666771
   31      C      -4.9992299544    -0.1097832442    -2.4523145113
   32      H      -5.4740948652    -0.9915285514    -2.0165398196
   33      H      -4.9568226894    -0.2814472068    -3.5310139008
   34      C       2.4697215391    -0.6438239841     1.4027985151
   35      C      -5.8382691226     1.1438903843    -2.1775514787
   36      H      -6.8929456560     0.8716328872    -2.1124867775
   37      H      -5.5655888753     1.5336369559    -1.1871849074
   38      C      -5.6536669957     2.1382870074    -3.2776642449
   39      C      -6.7498665180     2.5671197632    -3.9802997366
   40      H      -7.7367642260     2.2801962356    -3.6339106008
   41      C      -6.6639702073     3.3258167905    -5.1589668341
   42      C      -7.8321221709     3.7424756593    -5.8174334559
   43      N      -8.8119576559     4.0700421750    -6.3443137478
   44      C      -5.3462059976     3.6034465750    -5.6578589340
   45      C      -4.2423018626     3.1887427958    -4.9286710554
   46      H      -3.2726303593     3.4701163385    -5.3170240087
   47      C      -4.3335292395     2.4680784744    -3.7416675130
   48      C      -5.1385538477     4.2954894818    -6.8731015510
   49      N      -4.9459770771     4.8615999861    -7.8632662854
   50      C      -3.1049620094     2.4117107303    -2.8443403145
   51      C      -1.8356540020     2.5707444665    -3.6680753209
   52      C      -1.3389340962     1.6917975712    -4.6114172308
   53      H      -1.8813040028     0.7859602989    -4.8553330671
   54      C      -0.1627929538     2.0190062034    -5.2750650244
   55      H       0.2241386108     1.3598384673    -6.0417789397
   56      C       0.5014823897     3.2081117563    -4.9844637707
   57      H       1.4059558089     3.4609879566    -5.5229865100
   58      C       0.0016720294     4.0863455975    -4.0325636837
   59      H       0.5158786035     5.0168351816    -3.8268535768
   60      C      -1.1762029098     3.7627118611    -3.3730115504
   61      C      -1.9493033940     4.4744563454    -2.3603505372
   62      C      -1.7533272880     5.7135776856    -1.7729228860
   63      H      -0.9065119994     6.3315216166    -2.0457870458
   64      C      -2.6729500876     6.1607222470    -0.8346176521
   65      H      -2.5419598442     7.1298619418    -0.3720078355
   66      C      -3.7738517028     5.3783782354    -0.4977111531
   67      H      -4.4904223036     5.7482780372     0.2241907625
   68      C      -3.9736059991     4.1383334490    -1.0869381436
   69      H      -4.8483768388     3.5511787285    -0.8393361099
   70      C      -3.0538554537     3.6875990751    -2.0167525753
   71      C       3.7651640837    -0.4282775957     2.1803464641
   72      H       4.6227895278    -0.8007137324     1.6236414732
   73      H       3.7581218474    -0.9892938426     3.1127060483
   74      H       3.9311359138     0.6238028149     2.4101938317
   75      C       2.3146158331    -2.1603790342     1.1101267995
   76      H       3.1577411157    -2.5180835205     0.5185427301
   77      H       1.4020654138    -2.3831380273     0.5557269530
   78      H       2.2838213102    -2.7217988660     2.0444123922
 ----------------------------------------------------------------

    4   -1855.3918579889      6.95E-07 Convergence criterion met
 Total energy in the final basis set = -1855.39185799
 Final energy is   -1855.39185798891
 **  OPTIMIZATION CONVERGED  **

                    Orbital Energies (a.u.)
 --------------------------------------------------------------

 Alpha MOs
 -- Occupied --
-14.805 -14.569 -14.563 -10.575 -10.574 -10.543 -10.537 -10.536
-10.535 -10.521 -10.519 -10.518 -10.516 -10.515 -10.514 -10.513
-10.508 -10.493 -10.492 -10.491 -10.489 -10.486 -10.486 -10.478
-10.476 -10.458 -10.456 -10.456 -10.456 -10.455 -10.453 -10.448
-10.447 -10.445 -10.443 -10.441 -10.440 -10.438 -10.430 -10.420
-10.417 -10.416 -10.414 -10.413 -10.411 -10.411 -10.409  -1.181
 -1.040  -1.035  -1.013  -0.991  -0.982  -0.950  -0.948  -0.935
 -0.931  -0.929  -0.913  -0.910  -0.908  -0.890  -0.879  -0.875
 -0.860  -0.846  -0.837  -0.836  -0.819  -0.809  -0.806  -0.789
 -0.787  -0.768  -0.756  -0.743  -0.728  -0.720  -0.713  -0.690
 -0.689  -0.687  -0.678  -0.668  -0.662  -0.653  -0.645  -0.632
 -0.613  -0.608  -0.601  -0.595  -0.591  -0.585  -0.577  -0.571
 -0.567  -0.563  -0.560  -0.559  -0.557  -0.547  -0.545  -0.536
 -0.525  -0.520  -0.513  -0.512  -0.510  -0.506  -0.505  -0.495
 -0.493  -0.491  -0.489  -0.485  -0.484  -0.480  -0.477  -0.472
 -0.470  -0.463  -0.460  -0.456  -0.448  -0.447  -0.442  -0.438
 -0.433  -0.431  -0.421  -0.418  -0.411  -0.407  -0.403  -0.397
 -0.393  -0.386  -0.377  -0.365  -0.362  -0.355  -0.354  -0.353
 -0.350  -0.349  -0.336  -0.333  -0.324  -0.316  -0.314  -0.309
 -0.292  -0.285  -0.260  -0.252  -0.241  -0.089

 Beta MOs
 -- Occupied --
-14.816 -14.567 -14.559 -10.574 -10.573 -10.543 -10.539 -10.538
-10.537 -10.523 -10.522 -10.520 -10.517 -10.516 -10.513 -10.512
-10.506 -10.494 -10.493 -10.491 -10.488 -10.487 -10.486 -10.477
-10.477 -10.458 -10.456 -10.456 -10.456 -10.455 -10.453 -10.448
-10.446 -10.445 -10.443 -10.441 -10.439 -10.438 -10.430 -10.418
-10.417 -10.415 -10.412 -10.412 -10.411 -10.409 -10.408  -1.199
 -1.045  -1.038  -1.013  -0.992  -0.985  -0.949  -0.944  -0.933
 -0.931  -0.926  -0.913  -0.912  -0.905  -0.893  -0.880  -0.877
 -0.860  -0.846  -0.838  -0.836  -0.814  -0.808  -0.805  -0.792
 -0.788  -0.766  -0.756  -0.746  -0.729  -0.719  -0.713  -0.692
 -0.691  -0.687  -0.676  -0.667  -0.662  -0.653  -0.644  -0.631
 -0.620  -0.615  -0.607  -0.596  -0.594  -0.587  -0.578  -0.572
 -0.568  -0.564  -0.562  -0.560  -0.558  -0.551  -0.545  -0.535
 -0.528  -0.522  -0.519  -0.513  -0.510  -0.506  -0.504  -0.497
 -0.495  -0.492  -0.491  -0.488  -0.484  -0.481  -0.477  -0.473
 -0.470  -0.468  -0.460  -0.456  -0.454  -0.449  -0.445  -0.440
 -0.437  -0.429  -0.423  -0.418  -0.410  -0.406  -0.397  -0.393
 -0.391  -0.384  -0.375  -0.374  -0.363  -0.362  -0.359  -0.352
 -0.347  -0.335  -0.333  -0.331  -0.330  -0.316  -0.312  -0.308
 -0.306  -0.292  -0.282  -0.255  -0.244  -0.210

          Ground-State Mulliken Net Atomic Charges

     Atom                 Charge (a.u.)    Spin (a.u.)
  --------------------------------------------------------
      1 N                    -0.596032      -0.438923
      2 C                     0.284978       0.105975
      3 C                     0.304301       0.098729
      4 C                     0.212587      -0.188531
      5 C                    -0.321013       0.129526
      6 H                     0.238407      -0.006255
      7 C                    -0.188011      -0.226906
      8 H                     0.253441       0.012305
      9 C                    -0.237418       0.134441
     10 H                     0.257925      -0.006549
     11 C                    -0.243990      -0.183854
     12 H                     0.306112       0.009481
     13 C                     0.192839      -0.208474
     14 C                    -0.314873       0.140860
     15 H                     0.239712      -0.006820
     16 C                    -0.187412      -0.256372
     17 H                     0.253433       0.013989
     18 C                    -0.230254       0.142049
     19 H                     0.268382      -0.006636
     20 C                    -0.270072      -0.196679
     21 H                     0.338504       0.010863
     22 C                     0.168841       0.023481
     23 C                    -0.314865      -0.013094
     24 H                     0.296600      -0.000110
     25 C                    -0.226635      -0.037717
     26 H                     0.232710       0.001828
     27 C                    -0.306906       0.048411
     28 H                     0.231322      -0.003593
     29 C                     0.225893       0.050572
     30 C                     0.080201      -0.056204
     31 C                    -0.506103       0.015306
     32 H                     0.226141      -0.001994
     33 H                     0.273591      -0.003936
     34 C                    -0.271731       0.034386
     35 C                    -0.540209      -0.012979
     36 H                     0.243708      -0.000249
     37 H                     0.208572       0.014663
     38 C                     0.104357       0.173731
     39 C                    -0.318791      -0.110006
     40 H                     0.204052       0.005489
     41 C                     0.011913       0.323185
     42 C                    -0.047871      -0.096775
     43 N                    -0.233091       0.177593
     44 C                     0.027113       0.173177
     45 C                    -0.283698      -0.116387
     46 H                     0.236186       0.006160
     47 C                     0.085744       0.239836
     48 C                    -0.035981      -0.053355
     49 N                    -0.224717       0.099450
     50 C                    -0.405193      -0.006296
     51 C                     0.016311       0.014183
     52 C                    -0.259200      -0.001088
     53 H                     0.234830       0.001395
     54 C                    -0.254580       0.003717
     55 H                     0.224127      -0.000184
     56 C                    -0.226784      -0.000148
     57 H                     0.220363       0.000023
     58 C                    -0.336970       0.001529
     59 H                     0.209137       0.000033
     60 C                     0.160618      -0.004395
     61 C                     0.118194       0.020437
     62 C                    -0.323835      -0.018015
     63 H                     0.200227       0.001335
     64 C                    -0.227420       0.038250
     65 H                     0.216024      -0.002454
     66 C                    -0.220388      -0.018933
     67 H                     0.217078       0.001097
     68 C                    -0.288175       0.029354
     69 H                     0.226561      -0.002143
     70 C                     0.172410       0.022412
     71 C                    -0.651299      -0.006219
     72 H                     0.241149       0.000501
     73 H                     0.240295       0.000544
     74 H                     0.256053      -0.000191
     75 C                    -0.590269      -0.027735
     76 H                     0.244579      -0.000588
     77 H                     0.236673       0.001916
     78 H                     0.241590      -0.001419
  --------------------------------------------------------
  Sum of atomic charges =     0.000000

                    Cartesian Multipole Moments
 -----------------------------------------------------------------
    Charge (ESU x 10^10)
                 0.0000
    Dipole Moment (Debye)
         X      24.3563      Y     -14.4449      Z      23.5512
       Tot      36.8313
    Quadrupole Moments (Debye-Ang)
        XX    -386.5302     XY      96.4487     YY    -324.9903
        XZ    -150.4663     YZ      94.9345     ZZ    -391.9401

 Total job time:  11450.15s(wall), 50478.41s(cpu)
        *  Thank you very much for using Q-Chem.  Have a nice day.  *
