 Q-Chem 5.0, Q-Chem, Inc., Pleasanton, CA (2017)
 Q-Chem 5.0.1 for Intel X86 EM64T Linux

User input:
--------------------------------------------------------------
$rem
threads 8
jobtype opt
method PBEh-3c
basis def2-mSVP
mem_static      1024
mem_total       8000
sym_ignore      true
unrestricted true
scf_algorithm	diis
scf_max_cycles	250
solvent_method  pcm
geom_opt_tol_energy 25
geom_opt_tol_gradient 75
$end

$pcm
theory  iefpcm
$end

$solvent
dielectric      2.38
$end

$molecule
read uincoords.mol
$end
--------------------------------------------------------------

   23   -1855.4213421883      7.22E-09 Convergence criterion met
 Total energy in the final basis set = -1855.42134219
   20   -1855.4294525424      7.78E-09 Convergence criterion met
 Total energy in the final basis set = -1855.42945254
   20   -1855.4303659369      8.37E-09 Convergence criterion met
 Total energy in the final basis set = -1855.43036594
   20   -1855.4308238550      9.52E-09 Convergence criterion met
 Total energy in the final basis set = -1855.43082385
   20   -1855.4308163339      8.61E-09 Convergence criterion met
 Total energy in the final basis set = -1855.43081633
   20   -1855.4306592355      7.83E-09 Convergence criterion met
 Total energy in the final basis set = -1855.43065924
   24   -1855.4306863746      9.83E-09 Convergence criterion met
 Total energy in the final basis set = -1855.43068637
   25   -1855.4267752583      5.77E-09 Convergence criterion met
   16   -1855.4386973969      6.23E-09 Convergence criterion met
 Total energy in the final basis set = -1855.43869740
   15   -1855.4388654426      9.37E-09 Convergence criterion met
 Total energy in the final basis set = -1855.43886544
   16   -1855.4389188995      6.09E-09 Convergence criterion met
 Total energy in the final basis set = -1855.43891890
   15   -1855.4389330202      8.24E-09 Convergence criterion met
 Total energy in the final basis set = -1855.43893302
   15   -1855.4389251989      8.12E-09 Convergence criterion met
 Total energy in the final basis set = -1855.43892520
   15   -1855.4389291926      8.11E-09 Convergence criterion met
 Total energy in the final basis set = -1855.43892919

             Standard Nuclear Orientation (Angstroms)
    I     Atom           X                Y                Z
 ----------------------------------------------------------------
    1      C       0.2342204885    -4.5642387301     1.0211374270
    2      C      -0.0270653904    -4.3281320780     2.5130013935
    3      C       1.6816051500    -4.0949905025     0.9163759845
    4      C       2.5025109986    -4.1526653812    -0.1927240994
    5      H       2.1468115092    -4.5682037757    -1.1282070336
    6      C       3.8012277763    -3.6714390347    -0.0815014002
    7      H       4.4618376295    -3.7072545480    -0.9377938959
    8      C       4.2586253143    -3.1460925695     1.1234045938
    9      H       5.2731255237    -2.7768509792     1.1935500190
   10      C       3.4326841850    -3.0977665571     2.2373312081
   11      H       3.8007269540    -2.6985589659     3.1738338887
   12      C       2.1365780752    -3.5798401764     2.1269413133
   13      C      -1.1680934533    -4.6133916696     3.2384553984
   14      H      -2.0103663804    -5.1219386903     2.7883191036
   15      C      -1.2125643655    -4.2521582301     4.5796067047
   16      H      -2.0962738276    -4.4707337897     5.1642198744
   17      C      -0.1305224890    -3.6158203278     5.1758130602
   18      H      -0.1827433129    -3.3386006576     6.2202573708
   19      C       1.0210707472    -3.3426955659     4.4491636503
   20      H       1.8655997857    -2.8601223857     4.9243909560
   21      C       1.0684698719    -3.7032085510     3.1129716358
   22      C      -2.1701582869    -3.8536204847     0.2077702266
   23      C      -3.0464669484    -2.8003978243     0.1323323031
   24      H      -4.1117820983    -2.9966756896     0.1107340108
   25      C      -2.6033476492    -1.4870958340    -0.0107808010
   26      C      -3.4911917460    -0.4114954340    -0.0213256081
   27      N      -4.2321454899     0.4814239090    -0.0355278345
   28      C      -0.6940649696    -3.5845420628     0.3251999903
   29      C      -0.2545699203    -2.3198617523    -0.0160817024
   30      H       0.8033171909    -2.1045474850    -0.0635514667
   31      C      -1.1387124421    -1.2740060110    -0.2505056938
   32      C      -0.6777213517    -0.0225247492    -0.6698967159
   33      N      -0.3046374741     1.0192834341    -1.0154726427
   34      H       5.8528258893    -6.3960473223     0.3359406993
   35      H       7.4715619462    -8.0712977740     1.2102299282
   36      C       5.5047255856    -7.3149491448     0.7899975741
   37      C       6.4060659726    -8.2466721059     1.2759207122
   38      C       4.1423514283    -7.5361101670     0.8979835237
   39      H       3.4622198806    -6.7822204295     0.5277202435
   40      C       5.9271953329    -9.4239724831     1.8318072695
   41      H       6.6391858535   -10.1601325781     2.1789104476
   42      C       3.6653333349    -8.7049366184     1.4905766730
   43      C       4.5674073818    -9.6873184473     1.9236154274
   44      N       2.2978790275    -8.9383714951     1.6757590268
   45      C       2.7491540978   -10.7751482595     3.1617902221
   46      C       1.8823466938    -9.7698503777     2.7178221653
   47      H       3.0161233226   -12.3302735854     4.6097634493
   48      C       2.3579343047   -11.5551708612     4.2414810107
   49      C       0.6324333069    -9.6071777151     3.3151344748
   50      C       1.1217671811   -11.3890684402     4.8491541880
   51      C       0.2549372701   -10.4214070861     4.3695060515
   52      H      -0.0455849090    -8.8402982043     2.9660800932
   53      H       0.8368221864   -12.0202794902     5.6802967653
   54      H      -0.7181684364   -10.2842111032     4.8232123961
   55      C       4.0032619814   -11.0311531746     2.3508662255
   56      C       5.0186194065   -11.8790553557     3.1093928180
   57      C       3.5925558661   -11.8063183760     1.0799201618
   58      C       1.3307169023    -8.1626098247     0.9912633445
   59      C       0.5947060428    -8.7375159186    -0.0351051099
   60      C      -0.3616910583    -7.9793983630    -0.6780499230
   61      C      -0.5805533092    -6.6359217541    -0.3642422583
   62      C       0.1928271348    -6.0464474439     0.6363522149
   63      C       1.1034144652    -6.8436782710     1.3297566857
   64      H       1.6776968713    -6.4192771595     2.1443089223
   65      H       0.7602181273    -9.7715031783    -0.3093668173
   66      H      -0.9631345641    -8.4369727511    -1.4542170428
   67      C      -1.7099505627    -5.9300017365    -1.0588497198
   68      C      -2.6403111298    -5.2412289647    -0.0518529837
   69      H      -2.2832251290    -6.6637316552    -1.6267570411
   70      H      -1.3469236681    -5.2061634952    -1.7952559480
   71      H      -2.6740628195    -5.8431845888     0.8632262981
   72      H      -3.6620123319    -5.2061746174    -0.4318694581
   73      H       2.8615202619   -11.2587662639     0.4850605579
   74      H       3.1503237320   -12.7668884774     1.3507882928
   75      H       4.4634112100   -11.9938308813     0.4491637529
   76      H       5.3452119284   -11.3993805874     4.0328033036
   77      H       5.8969346394   -12.0783892307     2.4959906675
   78      H       4.5994167476   -12.8533790929     3.3602724961
 ----------------------------------------------------------------

   15   -1855.4389317041      8.32E-09 Convergence criterion met
 Total energy in the final basis set = -1855.43893170
 Final energy is   -1855.43893170411
 **  OPTIMIZATION CONVERGED  **

                    Orbital Energies (a.u.)
 --------------------------------------------------------------

 Alpha MOs
 -- Occupied --
-14.679 -14.661 -14.661 -10.523 -10.523 -10.513 -10.507 -10.506
-10.500 -10.500 -10.495 -10.492 -10.491 -10.485 -10.484 -10.481
-10.476 -10.475 -10.471 -10.470 -10.469 -10.468 -10.468 -10.464
-10.463 -10.462 -10.462 -10.461 -10.461 -10.460 -10.460 -10.460
-10.459 -10.459 -10.459 -10.452 -10.452 -10.444 -10.444 -10.444
-10.443 -10.442 -10.440 -10.438 -10.437 -10.427 -10.425  -1.091
 -1.041  -1.029  -1.025  -1.000  -0.985  -0.965  -0.960  -0.958
 -0.936  -0.931  -0.911  -0.898  -0.888  -0.881  -0.855  -0.852
 -0.849  -0.844  -0.835  -0.821  -0.819  -0.811  -0.791  -0.777
 -0.770  -0.741  -0.727  -0.722  -0.713  -0.708  -0.701  -0.687
 -0.677  -0.673  -0.671  -0.667  -0.661  -0.640  -0.619  -0.614
 -0.612  -0.607  -0.593  -0.583  -0.576  -0.565  -0.563  -0.557
 -0.540  -0.539  -0.535  -0.532  -0.530  -0.525  -0.522  -0.520
 -0.514  -0.509  -0.505  -0.502  -0.499  -0.498  -0.497  -0.492
 -0.490  -0.489  -0.484  -0.480  -0.472  -0.469  -0.459  -0.450
 -0.448  -0.446  -0.445  -0.442  -0.441  -0.437  -0.435  -0.432
 -0.427  -0.427  -0.426  -0.419  -0.418  -0.415  -0.415  -0.411
 -0.408  -0.403  -0.399  -0.398  -0.396  -0.395  -0.393  -0.379
 -0.373  -0.362  -0.350  -0.343  -0.338  -0.318  -0.306  -0.302
 -0.297  -0.290  -0.289  -0.282  -0.268  -0.231  -0.206

 Beta MOs
 -- Occupied --
-14.679 -14.654 -14.654 -10.515 -10.513 -10.508 -10.504 -10.503
-10.503 -10.498 -10.495 -10.492 -10.491 -10.489 -10.488 -10.481
-10.476 -10.475 -10.471 -10.469 -10.469 -10.469 -10.468 -10.463
-10.463 -10.462 -10.462 -10.461 -10.461 -10.460 -10.460 -10.460
-10.459 -10.459 -10.459 -10.452 -10.452 -10.444 -10.444 -10.444
-10.443 -10.442 -10.440 -10.438 -10.437 -10.427 -10.425  -1.091
 -1.030  -1.023  -1.014  -0.989  -0.982  -0.964  -0.958  -0.958
 -0.929  -0.922  -0.911  -0.893  -0.884  -0.871  -0.854  -0.851
 -0.849  -0.839  -0.835  -0.821  -0.819  -0.805  -0.789  -0.771
 -0.768  -0.738  -0.726  -0.719  -0.712  -0.706  -0.701  -0.686
 -0.676  -0.672  -0.671  -0.667  -0.659  -0.635  -0.619  -0.612
 -0.610  -0.606  -0.589  -0.579  -0.574  -0.563  -0.560  -0.557
 -0.539  -0.536  -0.532  -0.532  -0.527  -0.521  -0.520  -0.519
 -0.511  -0.506  -0.505  -0.501  -0.498  -0.497  -0.492  -0.491
 -0.489  -0.483  -0.478  -0.471  -0.468  -0.456  -0.453  -0.447
 -0.442  -0.441  -0.438  -0.436  -0.436  -0.434  -0.430  -0.426
 -0.425  -0.423  -0.419  -0.417  -0.415  -0.414  -0.411  -0.408
 -0.403  -0.402  -0.396  -0.395  -0.393  -0.390  -0.379  -0.373
 -0.370  -0.361  -0.345  -0.325  -0.319  -0.305  -0.302  -0.297
 -0.290  -0.289  -0.282  -0.268  -0.231

          Ground-State Mulliken Net Atomic Charges

     Atom                 Charge (a.u.)    Spin (a.u.)
  --------------------------------------------------------
      1 C                    -0.395542      -0.053286
      2 C                     0.148566       0.018653
      3 C                     0.023064       0.010493
      4 C                    -0.264250      -0.002765
      5 H                     0.246964       0.000130
      6 C                    -0.250908       0.003713
      7 H                     0.244240      -0.000163
      8 C                    -0.220854      -0.002830
      9 H                     0.244782       0.000153
     10 C                    -0.341596       0.003008
     11 H                     0.232908      -0.000166
     12 C                     0.167940      -0.006007
     13 C                    -0.291785       0.026226
     14 H                     0.233737      -0.001917
     15 C                    -0.234555      -0.020054
     16 H                     0.242443       0.001091
     17 C                    -0.229287       0.031167
     18 H                     0.244630      -0.001764
     19 C                    -0.329485      -0.015806
     20 H                     0.232000       0.001212
     21 C                     0.134449       0.022594
     22 C                     0.137799       0.564110
     23 C                    -0.293154      -0.305153
     24 H                     0.264541       0.016421
     25 C                     0.052142       0.594846
     26 C                     0.007287      -0.203041
     27 N                    -0.197834       0.320084
     28 C                     0.129606       0.603453
     29 C                    -0.263202      -0.320205
     30 H                     0.285087       0.017258
     31 C                     0.057295       0.567875
     32 C                     0.008537      -0.193910
     33 N                    -0.195632       0.299390
     34 H                     0.227263       0.000003
     35 H                     0.225695      -0.000004
     36 C                    -0.250521      -0.000035
     37 C                    -0.236022       0.000062
     38 C                    -0.306656       0.000036
     39 H                     0.273776       0.000004
     40 C                    -0.336694      -0.000031
     41 H                     0.227248       0.000002
     42 C                     0.312512      -0.000020
     43 C                     0.150866       0.000057
     44 N                    -0.712511       0.000192
     45 C                     0.159687       0.000067
     46 C                     0.311339      -0.000030
     47 H                     0.227919       0.000003
     48 C                    -0.337463      -0.000040
     49 C                    -0.295222       0.000068
     50 C                    -0.235243       0.000059
     51 C                    -0.250849      -0.000042
     52 H                     0.250216       0.000004
     53 H                     0.226724      -0.000003
     54 H                     0.230028       0.000002
     55 C                    -0.222739      -0.000010
     56 C                    -0.672500       0.000001
     57 C                    -0.607679       0.000009
     58 C                     0.224978       0.001767
     59 C                    -0.239531      -0.002027
     60 C                    -0.315245       0.002015
     61 C                     0.070345      -0.003776
     62 C                     0.222132       0.018358
     63 C                    -0.300947      -0.002255
     64 H                     0.282337       0.000127
     65 H                     0.248959       0.000130
     66 H                     0.236428      -0.000002
     67 C                    -0.544929       0.019758
     68 C                    -0.535395      -0.048626
     69 H                     0.267674       0.003308
     70 H                     0.263153      -0.001974
     71 H                     0.266310       0.034733
     72 H                     0.269164       0.003301
     73 H                     0.235680      -0.000001
     74 H                     0.224282      -0.000000
     75 H                     0.225854      -0.000000
     76 H                     0.241158       0.000000
     77 H                     0.234475      -0.000000
     78 H                     0.234012      -0.000000
  --------------------------------------------------------
  Sum of atomic charges =    -0.000000

                    Cartesian Multipole Moments
 -----------------------------------------------------------------
    Charge (ESU x 10^10)
                -0.0000
    Dipole Moment (Debye)
         X       1.5886      Y      -9.0487      Z       1.4352
       Tot       9.2985
    Quadrupole Moments (Debye-Ang)
        XX    -256.7579     XY      22.4948     YY    -239.5024
        XZ      -0.5549     YZ       5.3192     ZZ    -256.0350

 Total job time:  58548.33s(wall), 218508.04s(cpu)
        *  Thank you very much for using Q-Chem.  Have a nice day.  *
