 Q-Chem 5.0, Q-Chem, Inc., Pleasanton, CA (2017)
 Q-Chem 5.0.1 for Intel X86 EM64T Linux

User input:
--------------------------------------------------------------
$rem
threads 8
jobtype opt
method PBEh-3c
basis def2-mSVP
mem_static      1024
mem_total       8000
sym_ignore      true
unrestricted true
scf_algorithm	diis
scf_max_cycles	2500
solvent_method  pcm
geom_opt_tol_energy 25
geom_opt_tol_gradient 75
$end

$pcm
theory  iefpcm
$end

$solvent
dielectric      8.93
$end

$molecule
read uincoords.mol
$end
--------------------------------------------------------------

   22   -1855.4527077115      6.20E-09 Convergence criterion met
 Total energy in the final basis set = -1855.45270771
   20   -1855.4613312436      5.72E-09 Convergence criterion met
 Total energy in the final basis set = -1855.46133124
   20   -1855.4623809773      7.07E-09 Convergence criterion met
 Total energy in the final basis set = -1855.46238098
   20   -1855.4625166682      6.97E-09 Convergence criterion met
 Total energy in the final basis set = -1855.46251667
   20   -1855.4625541895      6.75E-09 Convergence criterion met
 Total energy in the final basis set = -1855.46255419
   20   -1855.4624316058      6.49E-09 Convergence criterion met
 Total energy in the final basis set = -1855.46243161
   22   -1855.4415071816      8.60E-09 Convergence criterion met
 Total energy in the final basis set = -1855.44150718
   18   -1855.4413828110      7.54E-09 Convergence criterion met
   16   -1855.4531317659      7.84E-09 Convergence criterion met
 Total energy in the final basis set = -1855.45313177
   16   -1855.4531821596      6.46E-09 Convergence criterion met
 Total energy in the final basis set = -1855.45318216
   16   -1855.4532399248      6.64E-09 Convergence criterion met
 Total energy in the final basis set = -1855.45323992
   16   -1855.4532522676      7.51E-09 Convergence criterion met
 Total energy in the final basis set = -1855.45325227
   16   -1855.4532599218      7.63E-09 Convergence criterion met
 Total energy in the final basis set = -1855.45325992
   16   -1855.4532621143      7.99E-09 Convergence criterion met
 Total energy in the final basis set = -1855.45326211

             Standard Nuclear Orientation (Angstroms)
    I     Atom           X                Y                Z
 ----------------------------------------------------------------
    1      C       0.2354123227    -4.5642285154     1.0237712007
    2      C      -0.0397514080    -4.3310913798     2.5143728946
    3      C       1.6812840095    -4.0872798719     0.9311309283
    4      C       2.5122898934    -4.1401780247    -0.1709641180
    5      H       2.1669747335    -4.5555787333    -1.1104360634
    6      C       3.8080884943    -3.6529058499    -0.0471307737
    7      H       4.4775076941    -3.6871573784    -0.8967028545
    8      C       4.2518028869    -3.1239704881     1.1619965431
    9      H       5.2640830761    -2.7500860023     1.2412117895
   10      C       3.4150181470    -3.0786238474     2.2687017273
   11      H       3.7710633942    -2.6763875893     3.2087115960
   12      C       2.1226668122    -3.5688072832     2.1456013821
   13      C      -1.1842402094    -4.6264918137     3.2315053142
   14      H      -2.0192943827    -5.1428162209     2.7766926737
   15      C      -1.2400258549    -4.2673346669     4.5735691066
   16      H      -2.1259120748    -4.4945153256     5.1517670515
   17      C      -0.1664667755    -3.6232819963     5.1782006970
   18      H      -0.2276776187    -3.3482645346     6.2228930086
   19      C       0.9888522230    -3.3403125113     4.4597549470
   20      H       1.8273405054    -2.8530347628     4.9411398171
   21      C       1.0474327371    -3.6989022752     3.1230195899
   22      C      -2.1691587680    -3.8570102528     0.2101116961
   23      C      -3.0492014495    -2.8017532940     0.1452360972
   24      H      -4.1141242225    -3.0005325683     0.1310013962
   25      C      -2.6054262877    -1.4923390186    -0.0005194599
   26      C      -3.4899851408    -0.4125965501    -0.0130958028
   27      N      -4.2177224781     0.4908425391    -0.0301727751
   28      C      -0.6930628626    -3.5857022374     0.3275481034
   29      C      -0.2544420767    -2.3215068162    -0.0162591508
   30      H       0.8028020436    -2.1042582274    -0.0683545543
   31      C      -1.1428624216    -1.2780988880    -0.2462543211
   32      C      -0.6877559324    -0.0238422482    -0.6640443901
   33      N      -0.3281495943     1.0239162925    -1.0065055413
   34      H       5.8568182954    -6.4422299272     0.2421977253
   35      H       7.4766172356    -8.1182257667     1.1140070706
   36      C       5.5084372647    -7.3515014470     0.7154923508
   37      C       6.4109336943    -8.2842296239     1.1998061250
   38      C       4.1458061772    -7.5611844871     0.8487694702
   39      H       3.4638553347    -6.8082985478     0.4791974208
   40      C       5.9322496957    -9.4513834114     1.7786998781
   41      H       6.6444424021   -10.1893626445     2.1218997419
   42      C       3.6694370509    -8.7190763296     1.4647520974
   43      C       4.5715634546    -9.7032512707     1.8954965567
   44      N       2.3042128140    -8.9366606595     1.6749864066
   45      C       2.7637054608   -10.7632823304     3.1714946327
   46      C       1.8972997125    -9.7559940829     2.7289236587
   47      H       3.0398913890   -12.3074677863     4.6303434104
   48      C       2.3824277930   -11.5303738449     4.2646977604
   49      C       0.6558130584    -9.5797621742     3.3414752580
   50      C       1.1554220801   -11.3495534933     4.8881521261
   51      C       0.2875772002   -10.3809956754     4.4098418683
   52      H      -0.0237579354    -8.8135140287     2.9935540094
   53      H       0.8777284944   -11.9707942739     5.7293752914
   54      H      -0.6789878269   -10.2333114736     4.8743925768
   55      C       4.0041570702   -11.0383152813     2.3452917529
   56      C       5.0243693279   -11.8862555137     3.0973941758
   57      C       3.5686108454   -11.8231773676     1.0883830526
   58      C       1.3344441673    -8.1615829148     0.9910154867
   59      C       0.5982990839    -8.7378726258    -0.0344981899
   60      C      -0.3569630696    -7.9785632171    -0.6789994644
   61      C      -0.5748444138    -6.6344229141    -0.3654994468
   62      C       0.1986773742    -6.0453124656     0.6354922677
   63      C       1.1103035821    -6.8417774680     1.3283320435
   64      H       1.6878745552    -6.4163796452     2.1401677808
   65      H       0.7626711801    -9.7723280342    -0.3087329400
   66      H      -0.9585100854    -8.4354601084    -1.4554179869
   67      C      -1.6998600748    -5.9264158763    -1.0644493703
   68      C      -2.6380163783    -5.2414638811    -0.0624075412
   69      H      -2.2703623883    -6.6577441598    -1.6376769731
   70      H      -1.3300470190    -5.2014784211    -1.7963089622
   71      H      -2.6835204919    -5.8460068657     0.8505468581
   72      H      -3.6556999188    -5.2025386861    -0.4517920753
   73      H       2.8304579102   -11.2789051820     0.4986543477
   74      H       3.1272322132   -12.7789742464     1.3770741013
   75      H       4.4293404931   -12.0228223188     0.4473718931
   76      H       5.3679016541   -11.4008662625     4.0117780789
   77      H       5.8924839298   -12.0965298074     2.4733592503
   78      H       4.6016191932   -12.8548711176     3.3636116704
 ----------------------------------------------------------------

   16   -1855.4532608306      8.60E-09 Convergence criterion met
 Total energy in the final basis set = -1855.45326083
 Final energy is   -1855.45326083064
 **  OPTIMIZATION CONVERGED  **

                    Orbital Energies (a.u.)
 --------------------------------------------------------------

 Alpha MOs
 -- Occupied --
-14.680 -14.666 -14.664 -10.524 -10.522 -10.513 -10.506 -10.506
-10.505 -10.505 -10.494 -10.494 -10.493 -10.484 -10.483 -10.479
-10.475 -10.472 -10.469 -10.469 -10.468 -10.467 -10.461 -10.461
-10.459 -10.459 -10.458 -10.458 -10.457 -10.457 -10.457 -10.456
-10.456 -10.456 -10.456 -10.454 -10.454 -10.446 -10.446 -10.445
-10.445 -10.444 -10.443 -10.439 -10.439 -10.425 -10.425  -1.092
 -1.044  -1.030  -1.029  -1.000  -0.983  -0.962  -0.960  -0.960
 -0.935  -0.928  -0.912  -0.897  -0.885  -0.879  -0.853  -0.850
 -0.849  -0.842  -0.836  -0.820  -0.818  -0.810  -0.790  -0.776
 -0.770  -0.738  -0.726  -0.720  -0.712  -0.707  -0.701  -0.684
 -0.675  -0.673  -0.670  -0.664  -0.661  -0.638  -0.619  -0.613
 -0.613  -0.605  -0.591  -0.581  -0.573  -0.562  -0.561  -0.554
 -0.540  -0.539  -0.534  -0.532  -0.527  -0.522  -0.521  -0.519
 -0.511  -0.506  -0.503  -0.501  -0.498  -0.497  -0.494  -0.493
 -0.490  -0.488  -0.481  -0.478  -0.471  -0.466  -0.460  -0.456
 -0.451  -0.449  -0.446  -0.442  -0.440  -0.437  -0.433  -0.430
 -0.426  -0.425  -0.423  -0.419  -0.419  -0.415  -0.412  -0.408
 -0.405  -0.403  -0.403  -0.399  -0.396  -0.394  -0.391  -0.380
 -0.374  -0.364  -0.349  -0.341  -0.338  -0.316  -0.304  -0.302
 -0.296  -0.291  -0.289  -0.285  -0.266  -0.233  -0.206

 Beta MOs
 -- Occupied --
-14.680 -14.659 -14.658 -10.515 -10.513 -10.509 -10.508 -10.506
-10.504 -10.496 -10.494 -10.494 -10.493 -10.488 -10.487 -10.478
-10.474 -10.472 -10.469 -10.469 -10.468 -10.467 -10.461 -10.461
-10.459 -10.459 -10.458 -10.458 -10.457 -10.457 -10.457 -10.456
-10.456 -10.456 -10.455 -10.454 -10.454 -10.446 -10.446 -10.445
-10.445 -10.444 -10.443 -10.439 -10.439 -10.425 -10.425  -1.092
 -1.032  -1.024  -1.019  -0.987  -0.981  -0.961  -0.960  -0.958
 -0.927  -0.919  -0.912  -0.892  -0.882  -0.870  -0.852  -0.849
 -0.848  -0.837  -0.836  -0.820  -0.818  -0.805  -0.787  -0.770
 -0.767  -0.735  -0.725  -0.718  -0.711  -0.706  -0.700  -0.683
 -0.673  -0.672  -0.668  -0.663  -0.658  -0.634  -0.619  -0.613
 -0.610  -0.603  -0.587  -0.577  -0.570  -0.560  -0.558  -0.554
 -0.540  -0.535  -0.531  -0.530  -0.523  -0.521  -0.518  -0.517
 -0.508  -0.504  -0.502  -0.501  -0.497  -0.493  -0.493  -0.490
 -0.488  -0.481  -0.475  -0.470  -0.466  -0.455  -0.452  -0.448
 -0.444  -0.443  -0.441  -0.437  -0.437  -0.432  -0.428  -0.426
 -0.423  -0.421  -0.419  -0.419  -0.418  -0.411  -0.408  -0.405
 -0.403  -0.402  -0.397  -0.395  -0.394  -0.389  -0.381  -0.374
 -0.371  -0.362  -0.343  -0.324  -0.317  -0.304  -0.302  -0.296
 -0.291  -0.289  -0.285  -0.266  -0.233

          Ground-State Mulliken Net Atomic Charges

     Atom                 Charge (a.u.)    Spin (a.u.)
  --------------------------------------------------------
      1 C                    -0.390286      -0.053237
      2 C                     0.140146       0.019608
      3 C                     0.022266       0.010599
      4 C                    -0.269063      -0.002810
      5 H                     0.257714       0.000123
      6 C                    -0.259317       0.003796
      7 H                     0.255422      -0.000168
      8 C                    -0.234345      -0.002789
      9 H                     0.256439       0.000148
     10 C                    -0.352247       0.002987
     11 H                     0.248232      -0.000166
     12 C                     0.161303      -0.006007
     13 C                    -0.303222       0.026620
     14 H                     0.252212      -0.001959
     15 C                    -0.247537      -0.020390
     16 H                     0.255656       0.001089
     17 C                    -0.241950       0.031959
     18 H                     0.256877      -0.001788
     19 C                    -0.339602      -0.015824
     20 H                     0.248016       0.001193
     21 C                     0.127223       0.022760
     22 C                     0.135383       0.582721
     23 C                    -0.291451      -0.295141
     24 H                     0.282511       0.015825
     25 C                     0.046223       0.568686
     26 C                     0.014367      -0.187684
     27 N                    -0.227723       0.300725
     28 C                     0.133596       0.599731
     29 C                    -0.263337      -0.312543
     30 H                     0.291542       0.016804
     31 C                     0.054406       0.562669
     32 C                     0.015705      -0.185516
     33 N                    -0.224013       0.291133
     34 H                     0.242269       0.000003
     35 H                     0.239585      -0.000004
     36 C                    -0.264624      -0.000034
     37 C                    -0.251547       0.000061
     38 C                    -0.316849       0.000035
     39 H                     0.278979       0.000003
     40 C                    -0.345815      -0.000031
     41 H                     0.241820       0.000002
     42 C                     0.309376      -0.000020
     43 C                     0.139315       0.000056
     44 N                    -0.707713       0.000180
     45 C                     0.146976       0.000061
     46 C                     0.309794      -0.000023
     47 H                     0.242350       0.000003
     48 C                    -0.346446      -0.000035
     49 C                    -0.308136       0.000061
     50 C                    -0.250933       0.000051
     51 C                    -0.263901      -0.000037
     52 H                     0.260501       0.000004
     53 H                     0.240095      -0.000003
     54 H                     0.244638       0.000002
     55 C                    -0.216846      -0.000009
     56 C                    -0.678522       0.000001
     57 C                    -0.618374       0.000008
     58 C                     0.218645       0.001831
     59 C                    -0.250689      -0.002059
     60 C                    -0.325327       0.002076
     61 C                     0.069433      -0.003762
     62 C                     0.222966       0.018586
     63 C                    -0.301591      -0.002288
     64 H                     0.282551       0.000137
     65 H                     0.260928       0.000131
     66 H                     0.251777      -0.000004
     67 C                    -0.551595       0.019840
     68 C                    -0.540051      -0.049539
     69 H                     0.278992       0.003336
     70 H                     0.268166      -0.002027
     71 H                     0.276231       0.036532
     72 H                     0.281709       0.003723
     73 H                     0.240411      -0.000001
     74 H                     0.228456      -0.000000
     75 H                     0.229309      -0.000000
     76 H                     0.240320       0.000000
     77 H                     0.241239      -0.000000
     78 H                     0.240981      -0.000000
  --------------------------------------------------------
  Sum of atomic charges =    -0.000000

                    Cartesian Multipole Moments
 -----------------------------------------------------------------
    Charge (ESU x 10^10)
                -0.0000
    Dipole Moment (Debye)
         X       1.4620      Y     -10.4460      Z       1.3320
       Tot      10.6316
    Quadrupole Moments (Debye-Ang)
        XX    -255.0011     XY      26.3544     YY    -232.0311
        XZ      -1.2912     YZ       6.6760     ZZ    -254.7982

 Total job time:  63382.32s(wall), 246660.92s(cpu)
        *  Thank you very much for using Q-Chem.  Have a nice day.  *
