 Q-Chem 5.0, Q-Chem, Inc., Pleasanton, CA (2017)
 Q-Chem 5.0.1 for Intel X86 EM64T Linux

User input:
--------------------------------------------------------------
$rem
threads 8
jobtype opt
method PBEh-3c
basis def2-mSVP
mem_static      1024
mem_total       8000
sym_ignore      true
unrestricted true
scf_algorithm	diis
scf_max_cycles	250
solvent_method  pcm
geom_opt_tol_energy 25
geom_opt_tol_gradient 75
$end

$pcm
theory  iefpcm
$end

$solvent
dielectric      1.0001
$end

$molecule
read uincoords.mol
$end
--------------------------------------------------------------

   44   -1855.3924967053      8.36E-09 Convergence criterion met
 Total energy in the final basis set = -1855.39249671
   27   -1855.4008937870      7.67E-09 Convergence criterion met
 Total energy in the final basis set = -1855.40089379
   19   -1855.4028470926      7.92E-09 Convergence criterion met
 Total energy in the final basis set = -1855.40284709
   17   -1855.4055578275      7.24E-09 Convergence criterion met
 Total energy in the final basis set = -1855.40555783
   15   -1855.4061065916      8.71E-09 Convergence criterion met
 Total energy in the final basis set = -1855.40610659
   17   -1855.4062406992      6.74E-09 Convergence criterion met
 Total energy in the final basis set = -1855.40624070
   15   -1855.4063666466      7.25E-09 Convergence criterion met
 Total energy in the final basis set = -1855.40636665
   14   -1855.4063976483      9.32E-09 Convergence criterion met
   14   -1855.4108102385      6.89E-09 Convergence criterion met
 Total energy in the final basis set = -1855.41081024
   14   -1855.4108100309      7.23E-09 Convergence criterion met
 Total energy in the final basis set = -1855.41081003
   14   -1855.4107789380      6.18E-09 Convergence criterion met
 Total energy in the final basis set = -1855.41077894
   12   -1855.4107453577      6.88E-09 Convergence criterion met
 Total energy in the final basis set = -1855.41074536
   12   -1855.4107428840      7.37E-09 Convergence criterion met
 Total energy in the final basis set = -1855.41074288
   10   -1855.4107505499      8.64E-09 Convergence criterion met
 Total energy in the final basis set = -1855.41075055

             Standard Nuclear Orientation (Angstroms)
    I     Atom           X                Y                Z
 ----------------------------------------------------------------
    1      C       0.1742807242    -4.5207845769     1.1509873961
    2      C       0.2410816218    -4.2688382543     2.6600040882
    3      C       1.6146641322    -4.1972498865     0.7572833375
    4      C       2.1740169333    -4.2764046706    -0.5024595093
    5      H       1.5832457237    -4.5955867864    -1.3528838141
    6      C       3.5121779978    -3.9392876963    -0.6575576646
    7      H       3.9678131983    -3.9875184000    -1.6378446188
    8      C       4.2695756940    -3.5394624764     0.4384612035
    9      H       5.3113862613    -3.2819924672     0.3021916885
   10      C       3.7059116669    -3.4697816363     1.7039651900
   11      H       4.3063634552    -3.1633636304     2.5508068115
   12      C       2.3678799109    -3.7992645372     1.8583156972
   13      C      -0.7665948093    -4.4132782277     3.5907625509
   14      H      -1.7508341625    -4.7577061161     3.2995817311
   15      C      -0.4967914148    -4.1095772002     4.9186708495
   16      H      -1.2745528119    -4.2179699241     5.6626436361
   17      C       0.7646436278    -3.6673680666     5.2996122827
   18      H       0.9578967036    -3.4329160649     6.3377776445
   19      C       1.7781667776    -3.5263765742     4.3634485619
   20      H       2.7596763011    -3.1852518268     4.6666520683
   21      C       1.5098161392    -3.8314348267     3.0388464827
   22      C      -2.1464431425    -3.6458623748     0.3420862854
   23      C      -2.9263404754    -2.5664881013    -0.0592110209
   24      H      -3.9812941613    -2.7205918564    -0.2445370418
   25      C      -2.3984832343    -1.3013899562    -0.2484138240
   26      C      -3.2454663550    -0.2355683074    -0.6711227157
   27      N      -3.9524973242     0.6056097686    -1.0132862042
   28      C      -0.7777462209    -3.4619651198     0.5747527553
   29      C      -0.2533915360    -2.1848857502     0.3758476814
   30      H       0.7980730949    -2.0018340651     0.5400700435
   31      C      -1.0325349437    -1.1137504414    -0.0323901178
   32      C      -0.4260554665     0.1610009101    -0.2329363293
   33      N       0.0775603013     1.1828701802    -0.3953598281
   34      H       5.3788683777    -6.5090310257    -0.2510725451
   35      H       7.1715135531    -7.7908130919     0.9192304267
   36      C       5.1325882324    -7.3259349569     0.4141337459
   37      C       6.1287004646    -8.0396838858     1.0616324011
   38      C       3.8061240861    -7.6441174479     0.6186229319
   39      H       3.0514927625    -7.0662766396     0.1048663020
   40      C       5.7699516947    -9.1006759180     1.8752451292
   41      H       6.5545967705    -9.6726711790     2.3534817260
   42      C       3.4432275151    -8.6833005616     1.4847513655
   43      C       4.4461437805    -9.4695269603     2.0815603748
   44      N       2.0991061424    -8.9321259341     1.7687431503
   45      C       2.6732889162   -11.0551192019     2.7022264721
   46      C       1.7432571588    -9.9076582804     2.6937198494
   47      H       2.8129712219   -13.1618795912     2.4422959461
   48      C       2.1602734131   -12.3002264489     2.5140588380
   49      C       0.3152106972   -10.1845798192     2.9094670769
   50      C       0.7607531660   -12.5197354520     2.4853995194
   51      C      -0.1396424353   -11.4485360836     2.7748404179
   52      H      -0.3513650245    -9.3822938361     3.2025963397
   53      H       0.3777612982   -13.5196114729     2.3370608684
   54      H      -1.1875941080   -11.6697398607     2.9382376859
   55      C       4.1146937552   -10.7013162630     2.9186189430
   56      C       4.2828637131   -10.3503818802     4.4114392162
   57      C       5.0348052055   -11.8700288343     2.5677043423
   58      C       1.0797235687    -8.1707991653     1.1501180074
   59      C       0.1901732622    -8.7689856516     0.2672283189
   60      C      -0.8152976364    -7.9969506764    -0.2708294541
   61      C      -0.9448473279    -6.6300207659    -0.0063050333
   62      C      -0.0184674817    -6.0190790406     0.8426816360
   63      C       0.9464435557    -6.8296467221     1.4427570395
   64      H       1.6475553752    -6.3978211085     2.1443065549
   65      H       0.2804675393    -9.8187700206     0.0236687977
   66      H      -1.5374979352    -8.4649488898    -0.9290498840
   67      C      -2.1356754453    -5.9380097576    -0.6036135899
   68      C      -2.8086899160    -4.9888533742     0.3838871135
   69      H      -2.8516758226    -6.7008851005    -0.9140357152
   70      H      -1.8701623120    -5.3909657446    -1.5131795077
   71      H      -2.7895400783    -5.4281612495     1.3845980537
   72      H      -3.8621035469    -4.8717118455     0.1261350866
   73      H       4.9530903209   -12.1406410047     1.5148955158
   74      H       4.7852470821   -12.7451083897     3.1689270619
   75      H       6.0782173205   -11.6406763323     2.7766657977
   76      H       3.5925524934    -9.5614106283     4.7103695060
   77      H       5.2978234169   -10.0048371414     4.6139352031
   78      H       4.0873400038   -11.2268318065     5.0309566708
 ----------------------------------------------------------------

    9   -1855.4107465436      9.31E-09 Convergence criterion met
 Total energy in the final basis set = -1855.41074654
 Final energy is   -1855.41074654358
 **  OPTIMIZATION CONVERGED  **

                    Orbital Energies (a.u.)
 --------------------------------------------------------------

 Alpha MOs
 -- Occupied --
-14.703 -14.657 -14.654 -10.522 -10.520 -10.512 -10.507 -10.500
-10.500 -10.498 -10.498 -10.495 -10.493 -10.491 -10.486 -10.479
-10.477 -10.476 -10.474 -10.474 -10.473 -10.473 -10.468 -10.468
-10.468 -10.468 -10.467 -10.467 -10.467 -10.466 -10.465 -10.464
-10.463 -10.463 -10.462 -10.457 -10.456 -10.449 -10.448 -10.446
-10.445 -10.444 -10.441 -10.441 -10.439 -10.429 -10.428  -1.104
 -1.042  -1.030  -1.020  -1.004  -0.987  -0.969  -0.963  -0.956
 -0.939  -0.933  -0.911  -0.899  -0.891  -0.885  -0.859  -0.857
 -0.850  -0.846  -0.838  -0.826  -0.822  -0.807  -0.795  -0.772
 -0.772  -0.748  -0.732  -0.726  -0.717  -0.712  -0.707  -0.692
 -0.682  -0.679  -0.673  -0.669  -0.665  -0.645  -0.622  -0.617
 -0.611  -0.606  -0.599  -0.584  -0.582  -0.573  -0.565  -0.561
 -0.551  -0.541  -0.536  -0.534  -0.530  -0.527  -0.524  -0.520
 -0.516  -0.510  -0.508  -0.504  -0.502  -0.501  -0.498  -0.495
 -0.491  -0.490  -0.486  -0.483  -0.477  -0.469  -0.461  -0.454
 -0.451  -0.448  -0.441  -0.440  -0.439  -0.436  -0.435  -0.433
 -0.431  -0.427  -0.425  -0.423  -0.420  -0.418  -0.417  -0.413
 -0.411  -0.404  -0.401  -0.399  -0.398  -0.396  -0.393  -0.383
 -0.377  -0.366  -0.350  -0.338  -0.323  -0.316  -0.313  -0.306
 -0.302  -0.299  -0.292  -0.288  -0.271  -0.238  -0.151

 Beta MOs
 -- Occupied --
-14.696 -14.657 -14.654 -10.522 -10.520 -10.512 -10.507 -10.500
-10.500 -10.499 -10.498 -10.496 -10.493 -10.491 -10.486 -10.478
-10.477 -10.476 -10.474 -10.474 -10.473 -10.468 -10.468 -10.468
-10.468 -10.467 -10.467 -10.467 -10.466 -10.465 -10.464 -10.463
-10.462 -10.462 -10.461 -10.455 -10.449 -10.447 -10.445 -10.445
-10.443 -10.443 -10.442 -10.440 -10.438 -10.429 -10.427  -1.089
 -1.042  -1.030  -1.020  -1.004  -0.986  -0.969  -0.960  -0.945
 -0.938  -0.933  -0.904  -0.899  -0.890  -0.884  -0.858  -0.857
 -0.847  -0.841  -0.830  -0.826  -0.818  -0.800  -0.791  -0.771
 -0.765  -0.748  -0.732  -0.724  -0.711  -0.710  -0.699  -0.690
 -0.682  -0.679  -0.673  -0.667  -0.660  -0.643  -0.615  -0.614
 -0.611  -0.602  -0.597  -0.583  -0.581  -0.572  -0.564  -0.561
 -0.544  -0.539  -0.535  -0.532  -0.528  -0.526  -0.522  -0.517
 -0.515  -0.510  -0.507  -0.502  -0.500  -0.499  -0.495  -0.494
 -0.490  -0.487  -0.483  -0.477  -0.472  -0.468  -0.460  -0.450
 -0.445  -0.442  -0.440  -0.438  -0.438  -0.436  -0.434  -0.431
 -0.430  -0.426  -0.425  -0.421  -0.420  -0.416  -0.414  -0.411
 -0.404  -0.401  -0.399  -0.396  -0.393  -0.392  -0.390  -0.375
 -0.363  -0.352  -0.350  -0.337  -0.322  -0.314  -0.306  -0.304
 -0.298  -0.286  -0.281  -0.271  -0.257

          Ground-State Mulliken Net Atomic Charges

     Atom                 Charge (a.u.)    Spin (a.u.)
  --------------------------------------------------------
      1 C                    -0.431881       0.001315
      2 C                     0.161033      -0.000354
      3 C                     0.031414      -0.000525
      4 C                    -0.257856       0.000241
      5 H                     0.229574      -0.000027
      6 C                    -0.239751      -0.000165
      7 H                     0.230964       0.000006
      8 C                    -0.210977       0.000305
      9 H                     0.230223      -0.000021
     10 C                    -0.324637      -0.000183
     11 H                     0.214704       0.000006
     12 C                     0.166282       0.000068
     13 C                    -0.279144       0.000062
     14 H                     0.216328      -0.000008
     15 C                    -0.222334      -0.000035
     16 H                     0.228004      -0.000001
     17 C                    -0.216698       0.000067
     18 H                     0.229280      -0.000004
     19 C                    -0.321280      -0.000036
     20 H                     0.213703      -0.000002
     21 C                     0.136955       0.000078
     22 C                     0.105916       0.000068
     23 C                    -0.318711      -0.000033
     24 H                     0.246259      -0.000002
     25 C                     0.079708       0.000074
     26 C                    -0.007001      -0.000023
     27 N                    -0.153762       0.000029
     28 C                     0.208285      -0.000096
     29 C                    -0.296359       0.000101
     30 H                     0.281514      -0.000005
     31 C                     0.092237      -0.000040
     32 C                    -0.008962       0.000011
     33 N                    -0.154688      -0.000011
     34 H                     0.214641       0.003271
     35 H                     0.212433      -0.006131
     36 C                    -0.225384      -0.064312
     37 C                    -0.225191       0.107299
     38 C                    -0.301149       0.093019
     39 H                     0.262908      -0.005293
     40 C                    -0.290982      -0.070055
     41 H                     0.209475       0.003681
     42 C                     0.319813      -0.074127
     43 C                     0.145175       0.123291
     44 N                    -0.589967       0.192508
     45 C                     0.098901       0.420861
     46 C                     0.142952       0.703138
     47 H                     0.210323       0.020555
     48 C                    -0.289694      -0.277042
     49 C                    -0.304104       0.316227
     50 C                    -0.247515       0.704232
     51 C                    -0.203350      -0.183393
     52 H                     0.237258      -0.010001
     53 H                     0.216685      -0.043131
     54 H                     0.214046       0.011605
     55 C                    -0.203592      -0.038792
     56 C                    -0.591172       0.025297
     57 C                    -0.644249       0.004994
     58 C                     0.233534      -0.021437
     59 C                    -0.222741       0.030667
     60 C                    -0.300558      -0.020243
     61 C                     0.057540       0.030058
     62 C                     0.229785      -0.016810
     63 C                    -0.288346       0.036464
     64 H                     0.279663      -0.002048
     65 H                     0.253206      -0.001879
     66 H                     0.219202       0.001549
     67 C                    -0.515120      -0.002537
     68 C                    -0.546335       0.000484
     69 H                     0.247483       0.000247
     70 H                     0.252366       0.001435
     71 H                     0.257196      -0.000005
     72 H                     0.252092       0.000113
     73 H                     0.238373       0.000072
     74 H                     0.221801       0.000491
     75 H                     0.224029      -0.001050
     76 H                     0.240851       0.000171
     77 H                     0.216242       0.004744
     78 H                     0.223135       0.000956
  --------------------------------------------------------
  Sum of atomic charges =    -0.000000

                    Cartesian Multipole Moments
 -----------------------------------------------------------------
    Charge (ESU x 10^10)
                -0.0000
    Dipole Moment (Debye)
         X       1.1904      Y      -6.8936      Z       1.7363
       Tot       7.2079
    Quadrupole Moments (Debye-Ang)
        XX    -250.5270     XY      16.6132     YY    -258.1742
        XZ      -0.3883     YZ       5.0584     ZZ    -260.2962

 Total job time:  64351.99s(wall), 244385.98s(cpu)
        *  Thank you very much for using Q-Chem.  Have a nice day.  *
