 Q-Chem 5.0, Q-Chem, Inc., Pleasanton, CA (2017)
 Q-Chem 5.0.1 for Intel X86 EM64T Linux

User input:
--------------------------------------------------------------
$rem
threads 8
jobtype opt
method PBEh-3c
basis def2-mSVP
mem_static      1024
mem_total       8000
sym_ignore      true
unrestricted true
scf_algorithm	diis
scf_max_cycles	250
solvent_method  pcm
geom_opt_tol_energy 25
geom_opt_tol_gradient 75
$end

$pcm
theory  iefpcm
$end

$solvent
dielectric      2.03
$end

$molecule
read uincoords.mol
$end
--------------------------------------------------------------

   23   -1855.4153180418      7.67E-09 Convergence criterion met
 Total energy in the final basis set = -1855.41531804
   20   -1855.4233041661      6.69E-09 Convergence criterion met
 Total energy in the final basis set = -1855.42330417
   20   -1855.4241201601      8.82E-09 Convergence criterion met
 Total energy in the final basis set = -1855.42412016
   20   -1855.4247558072      8.91E-09 Convergence criterion met
 Total energy in the final basis set = -1855.42475581
   20   -1855.4247587404      8.09E-09 Convergence criterion met
 Total energy in the final basis set = -1855.42475874
   20   -1855.4246799813      8.16E-09 Convergence criterion met
 Total energy in the final basis set = -1855.42467998
   21   -1855.4246434472      5.64E-09 Convergence criterion met
 Total energy in the final basis set = -1855.42464345
   37   -1855.4246904576      9.88E-09 Convergence criterion met
   15   -1855.4362947035      9.97E-09 Convergence criterion met
 Total energy in the final basis set = -1855.43629470
   15   -1855.4363164792      7.90E-09 Convergence criterion met
 Total energy in the final basis set = -1855.43631648
   15   -1855.4363328501      8.59E-09 Convergence criterion met
 Total energy in the final basis set = -1855.43633285
   15   -1855.4363535741      7.26E-09 Convergence criterion met
 Total energy in the final basis set = -1855.43635357
   15   -1855.4363698903      6.91E-09 Convergence criterion met
 Total energy in the final basis set = -1855.43636989
   15   -1855.4363759053      7.13E-09 Convergence criterion met
 Total energy in the final basis set = -1855.43637591

             Standard Nuclear Orientation (Angstroms)
    I     Atom           X                Y                Z
 ----------------------------------------------------------------
    1      C       0.2330037838    -4.5644700522     1.0200400865
    2      C      -0.0275701964    -4.3299842853     2.5121479575
    3      C       1.6806988336    -4.0961455400     0.9154650330
    4      C       2.5011358106    -4.1529400077    -0.1939991654
    5      H       2.1443907152    -4.5663699881    -1.1299994579
    6      C       3.8005395671    -3.6739052830    -0.0824791828
    7      H       4.4606161299    -3.7088366275    -0.9391987194
    8      C       4.2592864266    -3.1519617047     1.1232761205
    9      H       5.2743794883    -2.7845079469     1.1937852750
   10      C       3.4338997776    -3.1046321534     2.2375257236
   11      H       3.8031699212    -2.7080126330     3.1746126909
   12      C       2.1369192120    -3.5841326364     2.1268426072
   13      C      -1.1687866709    -4.6145311406     3.2373497592
   14      H      -2.0120704078    -5.1204542014     2.7861951279
   15      C      -1.2125497294    -4.2556272180     4.5790224160
   16      H      -2.0965854714    -4.4735945097     5.1633231109
   17      C      -0.1294462104    -3.6222349000     5.1761814307
   18      H      -0.1810641681    -3.3467348137     6.2210801892
   19      C       1.0222921324    -3.3497085521     4.4497955322
   20      H       1.8675217335    -2.8691463671     4.9257518865
   21      C       1.0689619379    -3.7078771395     3.1130044331
   22      C      -2.1705765220    -3.8533602563     0.2042805086
   23      C      -3.0464689522    -2.8010224074     0.1273326004
   24      H      -4.1117720001    -2.9970706675     0.1028483874
   25      C      -2.6034850848    -1.4863376081    -0.0122195076
   26      C      -3.4912898215    -0.4111732976    -0.0186067168
   27      N      -4.2334841705     0.4808980484    -0.0291929491
   28      C      -0.6948071759    -3.5843853743     0.3238355304
   29      C      -0.2549833903    -2.3193037006    -0.0158514389
   30      H       0.8030072787    -2.1042288040    -0.0621623963
   31      C      -1.1384681582    -1.2731815272    -0.2510820740
   32      C      -0.6771348155    -0.0223243636    -0.6718701528
   33      N      -0.3028762099     1.0186598317    -1.0185793486
   34      H       5.8512951529    -6.3886371587     0.3455861781
   35      H       7.4706678823    -8.0617577801     1.2225798290
   36      C       5.5037068194    -7.3084983136     0.7980080685
   37      C       6.4053252230    -8.2389024557     1.2855165495
   38      C       4.1415397385    -7.5320326487     0.9023228730
   39      H       3.4611820318    -6.7790475007     0.5307402418
   40      C       5.9270752419    -9.4171862673     1.8394984980
   41      H       6.6394143798   -10.1522186446     2.1882222110
   42      C       3.6650559093    -8.7019694190     1.4928641731
   43      C       4.5675964058    -9.6828882427     1.9278556428
   44      N       2.2973186042    -8.9382449586     1.6740716106
   45      C       2.7480654121   -10.7739979025     3.1613763061
   46      C       1.8805828699    -9.7703664136     2.7153513170
   47      H       3.0146057957   -12.3280394110     4.6102848106
   48      C       2.3556680555   -11.5544877408     4.2401983670
   49      C       0.6290075004    -9.6099918657     3.3094989650
   50      C       1.1178288367   -11.3906758646     4.8447886649
   51      C       0.2504809066   -10.4248110853     4.3629193211
   52      H      -0.0494197896    -8.8442839465     2.9587711104
   53      H       0.8320333230   -12.0221665832     5.6753865122
   54      H      -0.7239435813   -10.2894272689     4.8142757838
   55      C       4.0047651527   -11.0276902967     2.3536931081
   56      C       5.0197385162   -11.8735750058     3.1150092218
   57      C       3.5990836962   -11.8038762408     1.0818317398
   58      C       1.3307127816    -8.1626121477     0.9890997598
   59      C       0.5957699517    -8.7370158862    -0.0383183665
   60      C      -0.3604393664    -7.9790324564    -0.6814338673
   61      C      -0.5802252047    -6.6359111933    -0.3669885553
   62      C       0.1919418860    -6.0466435279     0.6345620788
   63      C       1.1021851048    -6.8440898972     1.3282422035
   64      H       1.6754079569    -6.4200979702     2.1437281380
   65      H       0.7619810079    -9.7707815772    -0.3127990110
   66      H      -0.9611519465    -8.4363873847    -1.4583061465
   67      C      -1.7098511700    -5.9302354458    -1.0615635526
   68      C      -2.6401155127    -5.2415452047    -0.0544266865
   69      H      -2.2828195887    -6.6641706238    -1.6296028812
   70      H      -1.3472423324    -5.2061148072    -1.7979194647
   71      H      -2.6728449467    -5.8435332710     0.8606604604
   72      H      -3.6620871673    -5.2073029918    -0.4339539492
   73      H       2.8690286084   -11.2575067356     0.4848150673
   74      H       3.1574186602   -12.7650566856     1.3514473399
   75      H       4.4719383692   -11.9899272763     0.4534275466
   76      H       5.3432173544   -11.3929668266     4.0390129021
   77      H       5.8998848287   -12.0716999464     2.5038607124
   78      H       4.6016840493   -12.8486053026     3.3650928719
 ----------------------------------------------------------------

   15   -1855.4363766736      7.15E-09 Convergence criterion met
 Total energy in the final basis set = -1855.43637667
 Final energy is   -1855.43637667360
 **  OPTIMIZATION CONVERGED  **

                    Orbital Energies (a.u.)
 --------------------------------------------------------------

 Alpha MOs
 -- Occupied --
-14.679 -14.661 -14.660 -10.523 -10.523 -10.513 -10.508 -10.507
-10.499 -10.499 -10.496 -10.491 -10.491 -10.485 -10.485 -10.482
-10.477 -10.476 -10.472 -10.470 -10.470 -10.469 -10.468 -10.465
-10.464 -10.463 -10.463 -10.462 -10.462 -10.461 -10.461 -10.460
-10.460 -10.460 -10.459 -10.452 -10.452 -10.444 -10.444 -10.443
-10.443 -10.442 -10.440 -10.438 -10.437 -10.428 -10.426  -1.091
 -1.041  -1.029  -1.025  -1.000  -0.985  -0.965  -0.960  -0.958
 -0.936  -0.932  -0.911  -0.899  -0.888  -0.882  -0.856  -0.853
 -0.849  -0.845  -0.834  -0.822  -0.819  -0.811  -0.792  -0.777
 -0.771  -0.741  -0.728  -0.723  -0.714  -0.708  -0.701  -0.688
 -0.678  -0.673  -0.671  -0.668  -0.661  -0.640  -0.619  -0.614
 -0.612  -0.608  -0.593  -0.584  -0.577  -0.566  -0.564  -0.558
 -0.541  -0.539  -0.535  -0.533  -0.531  -0.525  -0.522  -0.520
 -0.515  -0.509  -0.506  -0.502  -0.500  -0.498  -0.498  -0.492
 -0.491  -0.489  -0.484  -0.481  -0.473  -0.470  -0.459  -0.450
 -0.447  -0.445  -0.445  -0.442  -0.442  -0.437  -0.435  -0.433
 -0.428  -0.427  -0.426  -0.420  -0.418  -0.416  -0.415  -0.412
 -0.408  -0.403  -0.399  -0.398  -0.396  -0.395  -0.393  -0.379
 -0.373  -0.362  -0.351  -0.343  -0.338  -0.319  -0.306  -0.303
 -0.297  -0.290  -0.288  -0.282  -0.269  -0.231  -0.206

 Beta MOs
 -- Occupied --
-14.678 -14.654 -14.653 -10.515 -10.513 -10.508 -10.504 -10.502
-10.502 -10.498 -10.496 -10.491 -10.491 -10.489 -10.489 -10.481
-10.476 -10.476 -10.472 -10.470 -10.470 -10.470 -10.468 -10.464
-10.464 -10.463 -10.463 -10.462 -10.462 -10.461 -10.461 -10.461
-10.460 -10.460 -10.459 -10.452 -10.452 -10.444 -10.444 -10.443
-10.443 -10.442 -10.440 -10.438 -10.437 -10.428 -10.426  -1.091
 -1.031  -1.022  -1.013  -0.989  -0.982  -0.965  -0.958  -0.958
 -0.929  -0.923  -0.911  -0.894  -0.885  -0.872  -0.855  -0.852
 -0.848  -0.839  -0.834  -0.822  -0.819  -0.806  -0.790  -0.771
 -0.768  -0.739  -0.726  -0.720  -0.713  -0.707  -0.701  -0.686
 -0.677  -0.672  -0.671  -0.668  -0.659  -0.636  -0.619  -0.612
 -0.611  -0.607  -0.590  -0.580  -0.575  -0.564  -0.560  -0.557
 -0.539  -0.537  -0.532  -0.532  -0.528  -0.522  -0.521  -0.520
 -0.512  -0.507  -0.505  -0.502  -0.498  -0.498  -0.492  -0.491
 -0.489  -0.484  -0.479  -0.472  -0.469  -0.457  -0.453  -0.447
 -0.442  -0.441  -0.437  -0.436  -0.435  -0.434  -0.431  -0.427
 -0.426  -0.424  -0.419  -0.417  -0.415  -0.414  -0.411  -0.409
 -0.404  -0.402  -0.396  -0.395  -0.393  -0.390  -0.379  -0.373
 -0.370  -0.361  -0.346  -0.326  -0.319  -0.306  -0.303  -0.297
 -0.290  -0.288  -0.282  -0.269  -0.230

          Ground-State Mulliken Net Atomic Charges

     Atom                 Charge (a.u.)    Spin (a.u.)
  --------------------------------------------------------
      1 C                    -0.396357      -0.053323
      2 C                     0.149954       0.018450
      3 C                     0.023153       0.010425
      4 C                    -0.263197      -0.002736
      5 H                     0.245091       0.000131
      6 C                    -0.249310       0.003678
      7 H                     0.242217      -0.000161
      8 C                    -0.218545      -0.002828
      9 H                     0.242649       0.000153
     10 C                    -0.339747       0.003002
     11 H                     0.230179      -0.000165
     12 C                     0.168774      -0.005988
     13 C                    -0.289786       0.026048
     14 H                     0.230776      -0.001903
     15 C                    -0.232228      -0.019906
     16 H                     0.240114       0.001087
     17 C                    -0.227080       0.030864
     18 H                     0.242380      -0.001750
     19 C                    -0.327729      -0.015729
     20 H                     0.229138       0.001213
     21 C                     0.135319       0.022476
     22 C                     0.138431       0.558945
     23 C                    -0.293329      -0.306214
     24 H                     0.261301       0.016538
     25 C                     0.052797       0.600132
     26 C                     0.006141      -0.206138
     27 N                    -0.192220       0.324460
     28 C                     0.128791       0.604453
     29 C                    -0.262926      -0.321737
     30 H                     0.283697       0.017397
     31 C                     0.057714       0.568610
     32 C                     0.007264      -0.195349
     33 N                    -0.190225       0.300917
     34 H                     0.224691       0.000003
     35 H                     0.223293      -0.000004
     36 C                    -0.248037      -0.000035
     37 C                    -0.233165       0.000062
     38 C                    -0.305077       0.000036
     39 H                     0.272720       0.000004
     40 C                    -0.334948      -0.000031
     41 H                     0.224797       0.000002
     42 C                     0.312983      -0.000020
     43 C                     0.152603       0.000057
     44 N                    -0.713210       0.000194
     45 C                     0.161450       0.000069
     46 C                     0.311577      -0.000031
     47 H                     0.225462       0.000003
     48 C                    -0.335711      -0.000041
     49 C                    -0.293139       0.000069
     50 C                    -0.232392       0.000060
     51 C                    -0.248411      -0.000043
     52 H                     0.248442       0.000004
     53 H                     0.224390      -0.000003
     54 H                     0.227487       0.000002
     55 C                    -0.223651      -0.000010
     56 C                    -0.671302       0.000001
     57 C                    -0.605784       0.000009
     58 C                     0.225869       0.001758
     59 C                    -0.237615      -0.002024
     60 C                    -0.313293       0.002006
     61 C                     0.070551      -0.003782
     62 C                     0.222189       0.018344
     63 C                    -0.300449      -0.002253
     64 H                     0.281739       0.000126
     65 H                     0.246807       0.000130
     66 H                     0.233682      -0.000002
     67 C                    -0.543693       0.019689
     68 C                    -0.534562      -0.048276
     69 H                     0.265638       0.003299
     70 H                     0.262261      -0.001961
     71 H                     0.264598       0.034325
     72 H                     0.266964       0.003216
     73 H                     0.234896      -0.000001
     74 H                     0.223596      -0.000000
     75 H                     0.225224      -0.000000
     76 H                     0.241045       0.000000
     77 H                     0.233394      -0.000000
     78 H                     0.232888      -0.000000
  --------------------------------------------------------
  Sum of atomic charges =    -0.000000

                    Cartesian Multipole Moments
 -----------------------------------------------------------------
    Charge (ESU x 10^10)
                -0.0000
    Dipole Moment (Debye)
         X       1.5904      Y      -8.8054      Z       1.4226
       Tot       9.0603
    Quadrupole Moments (Debye-Ang)
        XX    -256.9774     XY      21.8362     YY    -240.6865
        XZ      -0.4003     YZ       5.0923     ZZ    -256.2417

 Total job time:  64314.88s(wall), 245864.51s(cpu)
        *  Thank you very much for using Q-Chem.  Have a nice day.  *
