 Q-Chem 5.0, Q-Chem, Inc., Pleasanton, CA (2017)
 Q-Chem 5.0.1 for Intel X86 EM64T Linux

User input:
--------------------------------------------------------------
$rem
threads 8
jobtype opt
method PBEh-3c
basis def2-mSVP
mem_static      1024
mem_total       8000
sym_ignore      true
unrestricted true
scf_algorithm	diis
scf_max_cycles	250
solvent_method  pcm
geom_opt_tol_energy 25
geom_opt_tol_gradient 75
$end

$pcm
theory  iefpcm
$end
$solvent
dielectric      4.33
$end

$molecule
read uincoords.mol
$end
--------------------------------------------------------------

   22   -1855.4393046664      7.60E-09 Convergence criterion met
 Total energy in the final basis set = -1855.43930467
   20   -1855.4477049435      6.69E-09 Convergence criterion met
 Total energy in the final basis set = -1855.44770494
   20   -1855.4487441501      7.91E-09 Convergence criterion met
 Total energy in the final basis set = -1855.44874415
   20   -1855.4488996023      8.49E-09 Convergence criterion met
 Total energy in the final basis set = -1855.44889960
   20   -1855.4489266655      8.67E-09 Convergence criterion met
 Total energy in the final basis set = -1855.44892667
   20   -1855.4487214017      7.76E-09 Convergence criterion met
 Total energy in the final basis set = -1855.44872140
   20   -1855.4488328879      8.11E-09 Convergence criterion met
 Total energy in the final basis set = -1855.44883289
   21   -1855.4349486966      7.78E-09 Convergence criterion met
   16   -1855.4467568175      8.90E-09 Convergence criterion met
 Total energy in the final basis set = -1855.44675682
   15   -1855.4466796666      9.84E-09 Convergence criterion met
 Total energy in the final basis set = -1855.44667967
   16   -1855.4469445117      9.47E-09 Convergence criterion met
 Total energy in the final basis set = -1855.44694451
   16   -1855.4469012461      7.00E-09 Convergence criterion met
 Total energy in the final basis set = -1855.44690125
   16   -1855.4469200214      5.55E-09 Convergence criterion met
 Total energy in the final basis set = -1855.44692002
   16   -1855.4469166600      6.32E-09 Convergence criterion met
 Total energy in the final basis set = -1855.44691666

             Standard Nuclear Orientation (Angstroms)
    I     Atom           X                Y                Z
 ----------------------------------------------------------------
    1      C       0.2360113987    -4.5637351918     1.0205439111
    2      C      -0.0316532028    -4.3261819212     2.5114287166
    3      C       1.6826829463    -4.0910942351     0.9203161172
    4      C       2.5081985173    -4.1487823503    -0.1855127260
    5      H       2.1574932106    -4.5663502995    -1.1220105153
    6      C       3.8054520922    -3.6640485800    -0.0694898079
    7      H       4.4701658295    -3.7008443277    -0.9226167970
    8      C       4.2564262742    -3.1341989165     1.1362422268
    9      H       5.2698401175    -2.7624015305     1.2097278893
   10      C       3.4254751822    -3.0849973029     2.2468084604
   11      H       3.7877402468    -2.6821679725     3.1841008281
   12      C       2.1312472474    -3.5715481208     2.1315367142
   13      C      -1.1741904159    -4.6150291340     3.2337454684
   14      H      -2.0130322890    -5.1285516381     2.7827407137
   15      C      -1.2237957563    -4.2518448733     4.5745937220
   16      H      -2.1083608784    -4.4734860528     5.1568707513
   17      C      -0.1457710828    -3.6101783681     5.1731744023
   18      H      -0.2021125228    -3.3317668464     6.2171737026
   19      C       1.0074612108    -3.3336311195     4.4495933108
   20      H       1.8492051664    -2.8477071642     4.9265170396
   21      C       1.0599255853    -3.6961253057     3.1138985988
   22      C      -2.1687386731    -3.8554613785     0.2069480176
   23      C      -3.0467643562    -2.8014782289     0.1361822708
   24      H      -4.1118719992    -2.9989615992     0.1175052569
   25      C      -2.6030742100    -1.4898933085    -0.0083427620
   26      C      -3.4894733304    -0.4124706547    -0.0209227788
   27      N      -4.2242007357     0.4854559527    -0.0374639501
   28      C      -0.6925298735    -3.5853441257     0.3238570743
   29      C      -0.2534320385    -2.3204832208    -0.0191508899
   30      H       0.8041658223    -2.1045255344    -0.0698586438
   31      C      -1.1395117373    -1.2761626006    -0.2504466435
   32      C      -0.6813166985    -0.0227210962    -0.6678841860
   33      N      -0.3148935861     1.0222315754    -1.0111502275
   34      H       5.8580366024    -6.4188183991     0.3009991304
   35      H       7.4751521855    -8.0983960482     1.1705417137
   36      C       5.5085394783    -7.3337561996     0.7621889103
   37      C       6.4092800019    -8.2681367063     1.2454841572
   38      C       4.1456822844    -7.5479531580     0.8818877380
   39      H       3.4656780532    -6.7926222226     0.5139593750
   40      C       5.9289337242    -9.4411187242     1.8101859487
   41      H       6.6401373296   -10.1796662646     2.1540575515
   42      C       3.6674082118    -8.7122976973     1.4832392354
   43      C       4.5682856466    -9.6974932329     1.9133735098
   44      N       2.3007530406    -8.9367899740     1.6800309550
   45      C       2.7535865809   -10.7719009613     3.1679530856
   46      C       1.8883045431    -9.7637529488     2.7263414177
   47      H       3.0228006448   -12.3247054813     4.6185954015
   48      C       2.3660260835   -11.5471035333     4.2528897759
   49      C       0.6426777593    -9.5937370317     3.3314413481
   50      C       1.1344068799   -11.3732959269     4.8684653055
   51      C       0.2684365288   -10.4030417963     4.3912001656
   52      H      -0.0348718467    -8.8254014331     2.9844015012
   53      H       0.8520218984   -12.0007576534     5.7034225448
   54      H      -0.7012809782   -10.2601317542     4.8505415462
   55      C       4.0009130781   -11.0372390887     2.3492136975
   56      C       5.0177104006   -11.8876211209     3.1031319532
   57      C       3.5771482745   -11.8144553452     1.0836889602
   58      C       1.3327880344    -8.1617341301     0.9946458105
   59      C       0.5967420934    -8.7385969602    -0.0307254649
   60      C      -0.3590694624    -7.9807065591    -0.6753959269
   61      C      -0.5772987893    -6.6364250718    -0.3634432886
   62      C       0.1963594240    -6.0458984567     0.6363941038
   63      C       1.1072408746    -6.8419360967     1.3308672031
   64      H       1.6828441518    -6.4160933069     2.1438039527
   65      H       0.7617167643    -9.7731507778    -0.3037959489
   66      H      -0.9606039966    -8.4388552896    -1.4511280897
   67      C      -1.7045086117    -5.9301595685    -1.0608741696
   68      C      -2.6383664623    -5.2418260116    -0.0570041292
   69      H      -2.2767536436    -6.6632356567    -1.6303698106
   70      H      -1.3380731236    -5.2068818064    -1.7961284348
   71      H      -2.6777078831    -5.8434847735     0.8581073193
   72      H      -3.6582187055    -5.2053205649    -0.4413381988
   73      H       2.8428648616   -11.2669441436     0.4924085913
   74      H       3.1346374456   -12.7729143586     1.3616246614
   75      H       4.4427789402   -12.0074770028     0.4473111398
   76      H       5.3532729774   -11.4069566791     4.0228695144
   77      H       5.8907324593   -12.0923142189     2.4840364050
   78      H       4.5955597849   -12.8590583940     3.3599875676
 ----------------------------------------------------------------

   16   -1855.4469167318      6.58E-09 Convergence criterion met
 Total energy in the final basis set = -1855.44691673
 Final energy is   -1855.44691673183
 **  OPTIMIZATION CONVERGED  **

                    Orbital Energies (a.u.)
 --------------------------------------------------------------

 Alpha MOs
 -- Occupied --
-14.679 -14.663 -14.663 -10.524 -10.522 -10.513 -10.506 -10.506
-10.503 -10.503 -10.494 -10.493 -10.492 -10.484 -10.483 -10.480
-10.475 -10.473 -10.470 -10.468 -10.468 -10.467 -10.464 -10.462
-10.460 -10.460 -10.459 -10.459 -10.459 -10.458 -10.458 -10.458
-10.458 -10.457 -10.457 -10.453 -10.453 -10.445 -10.445 -10.444
-10.444 -10.443 -10.442 -10.438 -10.438 -10.426 -10.425  -1.092
 -1.042  -1.029  -1.028  -1.000  -0.984  -0.963  -0.959  -0.959
 -0.935  -0.929  -0.911  -0.897  -0.886  -0.880  -0.853  -0.850
 -0.849  -0.843  -0.835  -0.820  -0.819  -0.810  -0.790  -0.776
 -0.770  -0.739  -0.726  -0.721  -0.713  -0.707  -0.701  -0.685
 -0.676  -0.672  -0.670  -0.665  -0.661  -0.639  -0.619  -0.613
 -0.612  -0.606  -0.591  -0.582  -0.574  -0.563  -0.562  -0.555
 -0.539  -0.539  -0.534  -0.532  -0.528  -0.523  -0.521  -0.520
 -0.512  -0.507  -0.503  -0.501  -0.498  -0.497  -0.495  -0.492
 -0.489  -0.489  -0.482  -0.479  -0.471  -0.467  -0.459  -0.453
 -0.450  -0.447  -0.446  -0.441  -0.440  -0.437  -0.434  -0.431
 -0.427  -0.425  -0.424  -0.419  -0.418  -0.414  -0.413  -0.409
 -0.406  -0.403  -0.401  -0.398  -0.397  -0.394  -0.392  -0.380
 -0.373  -0.363  -0.349  -0.342  -0.338  -0.317  -0.304  -0.302
 -0.296  -0.290  -0.289  -0.283  -0.267  -0.232  -0.206

 Beta MOs
 -- Occupied --
-14.679 -14.657 -14.656 -10.515 -10.513 -10.506 -10.506 -10.506
-10.504 -10.497 -10.494 -10.493 -10.492 -10.488 -10.487 -10.479
-10.474 -10.473 -10.470 -10.468 -10.468 -10.467 -10.464 -10.462
-10.460 -10.460 -10.459 -10.459 -10.459 -10.458 -10.458 -10.458
-10.457 -10.457 -10.457 -10.453 -10.453 -10.445 -10.445 -10.444
-10.444 -10.443 -10.442 -10.438 -10.438 -10.426 -10.425  -1.092
 -1.031  -1.024  -1.017  -0.988  -0.981  -0.962  -0.959  -0.958
 -0.927  -0.921  -0.911  -0.892  -0.882  -0.871  -0.853  -0.849
 -0.849  -0.837  -0.835  -0.820  -0.819  -0.805  -0.788  -0.770
 -0.767  -0.736  -0.725  -0.718  -0.711  -0.706  -0.700  -0.684
 -0.674  -0.672  -0.669  -0.665  -0.658  -0.634  -0.619  -0.612
 -0.610  -0.604  -0.588  -0.578  -0.572  -0.561  -0.559  -0.555
 -0.539  -0.535  -0.531  -0.530  -0.525  -0.521  -0.519  -0.518
 -0.509  -0.504  -0.503  -0.501  -0.497  -0.495  -0.492  -0.489
 -0.489  -0.482  -0.476  -0.471  -0.467  -0.455  -0.452  -0.447
 -0.442  -0.441  -0.441  -0.437  -0.436  -0.432  -0.429  -0.426
 -0.424  -0.422  -0.418  -0.418  -0.418  -0.412  -0.409  -0.406
 -0.403  -0.402  -0.397  -0.395  -0.393  -0.390  -0.380  -0.373
 -0.370  -0.362  -0.344  -0.325  -0.318  -0.304  -0.301  -0.296
 -0.290  -0.289  -0.283  -0.267  -0.231

          Ground-State Mulliken Net Atomic Charges

     Atom                 Charge (a.u.)    Spin (a.u.)
  --------------------------------------------------------
      1 C                    -0.392977      -0.053538
      2 C                     0.144148       0.019271
      3 C                     0.022761       0.010711
      4 C                    -0.267099      -0.002858
      5 H                     0.252824       0.000129
      6 C                    -0.255736       0.003820
      7 H                     0.250483      -0.000168
      8 C                    -0.228187      -0.002857
      9 H                     0.251326       0.000153
     10 C                    -0.347466       0.003046
     11 H                     0.241452      -0.000168
     12 C                     0.164690      -0.006090
     13 C                    -0.298083       0.026675
     14 H                     0.243631      -0.001949
     15 C                    -0.241787      -0.020448
     16 H                     0.249766       0.001100
     17 C                    -0.236275       0.031950
     18 H                     0.251529      -0.001796
     19 C                    -0.335057      -0.016027
     20 H                     0.240938       0.001214
     21 C                     0.130945       0.022950
     22 C                     0.136911       0.571805
     23 C                    -0.292970      -0.299697
     24 H                     0.274448       0.016053
     25 C                     0.049159       0.582702
     26 C                     0.011223      -0.195194
     27 N                    -0.214793       0.310389
     28 C                     0.131560       0.604199
     29 C                    -0.263116      -0.315893
     30 H                     0.289011       0.016970
     31 C                     0.055695       0.562659
     32 C                     0.012585      -0.188383
     33 N                    -0.211891       0.293169
     34 H                     0.235456       0.000003
     35 H                     0.233341      -0.000004
     36 C                    -0.258377      -0.000034
     37 C                    -0.244766       0.000061
     38 C                    -0.311901       0.000035
     39 H                     0.276889       0.000003
     40 C                    -0.341923      -0.000030
     41 H                     0.235174       0.000002
     42 C                     0.310785      -0.000019
     43 C                     0.144823       0.000056
     44 N                    -0.710161       0.000185
     45 C                     0.153072       0.000064
     46 C                     0.310509      -0.000026
     47 H                     0.235803       0.000003
     48 C                    -0.342641      -0.000037
     49 C                    -0.302057       0.000064
     50 C                    -0.244038       0.000054
     51 C                    -0.258275      -0.000040
     52 H                     0.255864       0.000004
     53 H                     0.234118      -0.000003
     54 H                     0.238097       0.000002
     55 C                    -0.219498      -0.000010
     56 C                    -0.675977       0.000001
     57 C                    -0.613653       0.000009
     58 C                     0.221941       0.001804
     59 C                    -0.245697      -0.002048
     60 C                    -0.321007       0.002051
     61 C                     0.069724      -0.003775
     62 C                     0.222330       0.018508
     63 C                    -0.301925      -0.002276
     64 H                     0.283321       0.000132
     65 H                     0.255638       0.000131
     66 H                     0.244977      -0.000003
     67 C                    -0.548640       0.019784
     68 C                    -0.538042      -0.048935
     69 H                     0.273985       0.003332
     70 H                     0.265867      -0.002001
     71 H                     0.271707       0.035557
     72 H                     0.276088       0.003499
     73 H                     0.238268      -0.000001
     74 H                     0.226522      -0.000000
     75 H                     0.227767      -0.000000
     76 H                     0.241043       0.000000
     77 H                     0.238079      -0.000000
     78 H                     0.237742      -0.000000
  --------------------------------------------------------
  Sum of atomic charges =    -0.000000

                    Cartesian Multipole Moments
 -----------------------------------------------------------------
    Charge (ESU x 10^10)
                -0.0000
    Dipole Moment (Debye)
         X       1.5505      Y      -9.8188      Z       1.4107
       Tot      10.0400
    Quadrupole Moments (Debye-Ang)
        XX    -255.8798     XY      24.5494     YY    -235.5487
        XZ      -0.9275     YZ       6.0670     ZZ    -255.3711

 Total job time:  64168.61s(wall), 243585.19s(cpu)
        *  Thank you very much for using Q-Chem.  Have a nice day.  *
