 Q-Chem 5.0, Q-Chem, Inc., Pleasanton, CA (2017)
 Q-Chem 5.0.1 for Intel X86 EM64T Linux

User input:
--------------------------------------------------------------
$rem
threads 8
jobtype sp
method PBEh-3c
basis def2-mSVP
mem_static      1024
mem_total       8000
sym_ignore      true
unrestricted true
scf_algorithm	diis
scf_max_cycles	250
solvent_method  pcm
$end

$pcm
theory  iefpcm
$end

$solvent
dielectric      2.38
$end

$molecule
read uincoords.mol
$end

--------------------------------------------------------------

    9   -1855.4217830082      9.91E-06 Convergence criterion met
 Total energy in the final basis set = -1855.42178301
 Total job time:  591.52s(wall), 2319.63s(cpu)
        *  Thank you very much for using Q-Chem.  Have a nice day.  *
 Q-Chem 5.0, Q-Chem, Inc., Pleasanton, CA (2017)
 Q-Chem 5.0.1 for Intel X86 EM64T Linux

User input:
--------------------------------------------------------------

$rem
threads 8
jobtype opt
method PBEh-3c
basis def2-mSVP
mem_static      1024
mem_total       8000
sym_ignore      true
unrestricted true
scf_algorithm   diis
scf_max_cycles  250
solvent_method  pcm
geom_opt_tol_energy 25
geom_opt_tol_gradient 75
scf_guess	read
mom_start	1
$end

$pcm
theory  iefpcm
$end

$solvent
dielectric      2.38
$end

$molecule
read uincoords.mol
$end

--------------------------------------------------------------

   21   -1855.4213421867      7.57E-09 Convergence criterion met
 Total energy in the final basis set = -1855.42134219
   17   -1855.4294525828      7.17E-09 Convergence criterion met
 Total energy in the final basis set = -1855.42945258
   17   -1855.4303660460      8.86E-09 Convergence criterion met
 Total energy in the final basis set = -1855.43036605
   17   -1855.4308238926      7.35E-09 Convergence criterion met
 Total energy in the final basis set = -1855.43082389
   17   -1855.4308163416      7.42E-09 Convergence criterion met
 Total energy in the final basis set = -1855.43081634
   17   -1855.4306592386      8.38E-09 Convergence criterion met
 Total energy in the final basis set = -1855.43065924
   17   -1855.4306864230      4.69E-09 Convergence criterion met
 Total energy in the final basis set = -1855.43068642
   17   -1855.4306871753      5.08E-09 Convergence criterion met
 Total energy in the final basis set = -1855.43068718
   17   -1855.4306797307      5.47E-09 Convergence criterion met
 Total energy in the final basis set = -1855.43067973
   17   -1855.4306455233      5.51E-09 Convergence criterion met
 Total energy in the final basis set = -1855.43064552
   17   -1855.4306615195      5.58E-09 Convergence criterion met
 Total energy in the final basis set = -1855.43066152

             Standard Nuclear Orientation (Angstroms)
    I     Atom           X                Y                Z
 ----------------------------------------------------------------
    1      C       0.1543266700    -4.5087364552     1.1400736076
    2      C       0.0074974660    -4.3725856391     2.6578641318
    3      C       1.6329862283    -4.1570826470     0.9849839573
    4      C       2.3708619139    -4.1501985314    -0.1833703342
    5      H       1.8996833589    -4.3713604561    -1.1338768312
    6      C       3.7197271571    -3.8229553059    -0.1190367772
    7      H       4.3083150129    -3.7887376965    -1.0270490430
    8      C       4.3139282406    -3.5177078719     1.1022418414
    9      H       5.3640586422    -3.2583148674     1.1360572569
   10      C       3.5711572489    -3.5291080807     2.2742699594
   11      H       4.0393070240    -3.2847027625     3.2195959723
   12      C       2.2222649631    -3.8505111619     2.2083112539
   13      C      -1.1255052454    -4.5556926430     3.4282771736
   14      H      -2.0644935999    -4.8521524556     2.9798785946
   15      C      -1.0505893941    -4.3311246340     4.7974224962
   16      H      -1.9335059399    -4.4626374786     5.4094985256
   17      C       0.1425732932    -3.9281080273     5.3874250276
   18      H       0.1804778281    -3.7496752329     6.4540140511
   19      C       1.2811476490    -3.7422229953     4.6153702799
   20      H       2.2070184095    -3.4187475683     5.0747499094
   21      C       1.2057155403    -3.9659876224     3.2495714919
   22      C      -2.1476540435    -3.6605759337     0.2381970776
   23      C      -2.9269534952    -2.5933559805    -0.1177510997
   24      H      -3.9828411154    -2.7620129038    -0.3006641852
   25      C      -2.4283058392    -1.2895631621    -0.3087677857
   26      C      -3.2920563653    -0.2497003312    -0.6631418303
   27      N      -4.0255743145     0.6020153962    -0.9630213511
   28      C      -0.7308019014    -3.4719951670     0.4514524457
   29      C      -0.2230784708    -2.2072909974     0.2240311310
   30      H       0.8328617914    -2.0182156944     0.3633349945
   31      C      -1.0023112319    -1.1156182674    -0.1702853916
   32      C      -0.3767806841     0.1163646321    -0.4221353568
   33      N       0.1477068393     1.1310385206    -0.6280644174
   34      H       5.4268707111    -6.5122923821    -0.4517471203
   35      H       7.2045561344    -7.9762743151     0.4930262828
   36      C       5.1709916115    -7.3522902444     0.1781778323
   37      C       6.1632164662    -8.1715127528     0.7099459258
   38      C       3.8516380596    -7.6107042753     0.4526341634
   39      H       3.0930365183    -6.9707412353     0.0282909406
   40      C       5.8186271660    -9.2507673396     1.5082382515
   41      H       6.6076211723    -9.8880324147     1.8821886612
   42      C       3.5051095198    -8.6874524939     1.2947392577
   43      C       4.4989123588    -9.5365266929     1.8229790690
   44      N       2.1796965505    -8.9147789393     1.5981115784
   45      C       2.7028062304   -10.7971016857     3.0142940445
   46      C       1.7734271293    -9.8770191733     2.4966932816
   47      H       2.9014269412   -12.5185711351     4.2708474946
   48      C       2.2235154734   -11.7765374482     3.8724579867
   49      C       0.4196840235    -9.9205113833     2.8895314502
   50      C       0.8889206751   -11.8392940097     4.2380405054
   51      C      -0.0131610694   -10.8960545962     3.7523696362
   52      H      -0.2795146171    -9.1819066724     2.5277200386
   53      H       0.5535538200   -12.6175376338     4.9099651235
   54      H      -1.0510444520   -10.9226443024     4.0530946961
   55      C       4.1566806118   -10.7757053920     2.6159164244
   56      C       5.0353180794   -10.8539985427     3.8756785324
   57      C       4.4192890209   -12.0019953596     1.7122378632
   58      C       1.1675445305    -8.1269935090     0.9556584951
   59      C       0.3935158172    -8.6971363304    -0.0418347749
   60      C      -0.5895531186    -7.9106713334    -0.5997591724
   61      C      -0.7973645117    -6.5736993012    -0.2336796624
   62      C       0.0450428143    -5.9926990814     0.7217908475
   63      C       0.9857693039    -6.8198180759     1.3399776110
   64      H       1.6122684031    -6.4225919415     2.1278061647
   65      H       0.5401028159    -9.7229395924    -0.3542499322
   66      H      -1.2357722088    -8.3445593248    -1.3526591848
   67      C      -1.9797155287    -5.8849376014    -0.8495012212
   68      C      -2.7447813002    -5.0311638943     0.1628412678
   69      H      -2.6364294888    -6.6529742963    -1.2636872231
   70      H      -1.6738653550    -5.2583138708    -1.6918957229
   71      H      -2.7625607405    -5.5588055492     1.1244568468
   72      H      -3.7871287441    -4.9488009697    -0.1493268262
   73      H       3.8081629113   -11.9679259264     0.8102056928
   74      H       4.1868666531   -12.9249137179     2.2437596367
   75      H       5.4663081484   -12.0387337496     1.4121791127
   76      H       4.8640115696    -9.9974707889     4.5264037422
   77      H       6.0927302166   -10.8825194218     3.6197148277
   78      H       4.8319770415   -11.7594692824     4.4446537794
 ----------------------------------------------------------------

   17   -1855.4306621112      5.75E-09 Convergence criterion met
 Total energy in the final basis set = -1855.43066211
 Final energy is   -1855.43066211122
 **  OPTIMIZATION CONVERGED  **

                    Orbital Energies (a.u.)
 --------------------------------------------------------------

 Alpha MOs
 -- Occupied --
-14.801 -14.589 -14.585 -10.558 -10.558 -10.526 -10.522 -10.521
-10.521 -10.504 -10.502 -10.501 -10.501 -10.495 -10.494 -10.493
-10.490 -10.487 -10.483 -10.483 -10.482 -10.480 -10.472 -10.469
-10.466 -10.459 -10.458 -10.455 -10.454 -10.454 -10.453 -10.453
-10.452 -10.449 -10.446 -10.445 -10.445 -10.442 -10.440 -10.436
-10.433 -10.430 -10.428 -10.427 -10.426 -10.422 -10.421  -1.184
 -1.027  -1.021  -1.012  -0.989  -0.967  -0.965  -0.955  -0.952
 -0.940  -0.915  -0.912  -0.910  -0.895  -0.878  -0.874  -0.871
 -0.860  -0.846  -0.839  -0.829  -0.813  -0.811  -0.809  -0.779
 -0.776  -0.769  -0.749  -0.729  -0.725  -0.718  -0.710  -0.689
 -0.680  -0.676  -0.671  -0.668  -0.663  -0.655  -0.650  -0.633
 -0.602  -0.595  -0.594  -0.591  -0.583  -0.580  -0.579  -0.565
 -0.558  -0.553  -0.550  -0.545  -0.544  -0.539  -0.535  -0.528
 -0.527  -0.516  -0.514  -0.513  -0.506  -0.498  -0.496  -0.492
 -0.488  -0.487  -0.483  -0.479  -0.476  -0.473  -0.471  -0.469
 -0.462  -0.460  -0.453  -0.452  -0.450  -0.439  -0.436  -0.434
 -0.430  -0.426  -0.423  -0.419  -0.417  -0.412  -0.408  -0.398
 -0.396  -0.390  -0.389  -0.385  -0.375  -0.375  -0.367  -0.358
 -0.348  -0.346  -0.340  -0.338  -0.334  -0.331  -0.324  -0.316
 -0.300  -0.294  -0.289  -0.273  -0.262  -0.254  -0.111

 Beta MOs
 -- Occupied --
-14.789 -14.586 -14.581 -10.560 -10.560 -10.526 -10.521 -10.519
-10.518 -10.501 -10.499 -10.498 -10.498 -10.497 -10.496 -10.494
-10.492 -10.487 -10.484 -10.483 -10.482 -10.479 -10.472 -10.468
-10.465 -10.459 -10.458 -10.455 -10.454 -10.454 -10.453 -10.453
-10.452 -10.449 -10.446 -10.445 -10.445 -10.442 -10.441 -10.437
-10.433 -10.428 -10.426 -10.424 -10.423 -10.422 -10.419  -1.166
 -1.023  -1.017  -1.010  -0.987  -0.962  -0.961  -0.952  -0.949
 -0.935  -0.912  -0.910  -0.908  -0.893  -0.878  -0.869  -0.869
 -0.857  -0.840  -0.837  -0.824  -0.810  -0.809  -0.807  -0.776
 -0.771  -0.766  -0.746  -0.727  -0.723  -0.714  -0.707  -0.685
 -0.678  -0.674  -0.668  -0.667  -0.661  -0.655  -0.648  -0.632
 -0.595  -0.592  -0.589  -0.582  -0.581  -0.579  -0.578  -0.564
 -0.554  -0.551  -0.548  -0.542  -0.541  -0.536  -0.534  -0.527
 -0.525  -0.514  -0.512  -0.506  -0.501  -0.496  -0.493  -0.489
 -0.487  -0.486  -0.482  -0.477  -0.474  -0.472  -0.470  -0.464
 -0.461  -0.457  -0.450  -0.449  -0.441  -0.437  -0.432  -0.429
 -0.426  -0.421  -0.417  -0.415  -0.410  -0.408  -0.403  -0.397
 -0.394  -0.388  -0.385  -0.380  -0.371  -0.366  -0.356  -0.344
 -0.337  -0.336  -0.334  -0.332  -0.331  -0.328  -0.321  -0.311
 -0.293  -0.287  -0.261  -0.255  -0.223

          Ground-State Mulliken Net Atomic Charges

     Atom                 Charge (a.u.)    Spin (a.u.)
  --------------------------------------------------------
      1 C                    -0.397547      -0.008754
      2 C                     0.176301       0.005749
      3 C                     0.019758       0.004819
      4 C                    -0.270088      -0.000415
      5 H                     0.246985       0.000541
      6 C                    -0.254178       0.001669
      7 H                     0.234781      -0.000086
      8 C                    -0.228157      -0.001874
      9 H                     0.235175       0.000128
     10 C                    -0.345556       0.001859
     11 H                     0.225367      -0.000074
     12 C                     0.156910      -0.003779
     13 C                    -0.304605       0.018733
     14 H                     0.237978      -0.001301
     15 C                    -0.234422      -0.011904
     16 H                     0.233961       0.000704
     17 C                    -0.239385       0.019957
     18 H                     0.233324      -0.001241
     19 C                    -0.335444      -0.009846
     20 H                     0.220849       0.000699
     21 C                     0.110103       0.011926
     22 C                     0.095229       0.178110
     23 C                    -0.329952      -0.102783
     24 H                     0.214697       0.004507
     25 C                    -0.007797       0.332834
     26 C                    -0.056556      -0.092060
     27 N                    -0.285510       0.202712
     28 C                     0.099762       0.240864
     29 C                    -0.299095      -0.141665
     30 H                     0.243087       0.007276
     31 C                     0.000083       0.250277
     32 C                    -0.045319      -0.068952
     33 N                    -0.277418       0.148087
     34 H                     0.270204       0.005980
     35 H                     0.269437      -0.013511
     36 C                    -0.236086      -0.131455
     37 C                    -0.198702       0.251975
     38 C                    -0.262748       0.182598
     39 H                     0.318093      -0.010066
     40 C                    -0.304392      -0.147789
     41 H                     0.255618       0.006988
     42 C                     0.300101      -0.092868
     43 C                     0.186992       0.224533
     44 N                    -0.607288       0.438630
     45 C                     0.195418       0.222235
     46 C                     0.291538      -0.098738
     47 H                     0.256100       0.006907
     48 C                    -0.305786      -0.146090
     49 C                    -0.259740       0.179175
     50 C                    -0.199451       0.244146
     51 C                    -0.241443      -0.128462
     52 H                     0.310425      -0.009542
     53 H                     0.269579      -0.013098
     54 H                     0.271948       0.005874
     55 C                    -0.241843      -0.037266
     56 C                    -0.622841       0.016741
     57 C                    -0.599285       0.025672
     58 C                     0.124987      -0.031388
     59 C                    -0.226032       0.024153
     60 C                    -0.313846      -0.008093
     61 C                     0.067529       0.016347
     62 C                     0.222886      -0.002126
     63 C                    -0.258325       0.027594
     64 H                     0.290195      -0.001421
     65 H                     0.256861      -0.001186
     66 H                     0.248693       0.001511
     67 C                    -0.505743       0.007280
     68 C                    -0.552042      -0.014210
     69 H                     0.238470      -0.001155
     70 H                     0.270479       0.000261
     71 H                     0.218743       0.013287
     72 H                     0.249803       0.000460
     73 H                     0.243434      -0.001215
     74 H                     0.244560       0.000795
     75 H                     0.246045       0.000681
     76 H                     0.255308      -0.000469
     77 H                     0.244648      -0.000141
     78 H                     0.244180      -0.000250
  --------------------------------------------------------
  Sum of atomic charges =     0.000000

                    Cartesian Multipole Moments
 -----------------------------------------------------------------
    Charge (ESU x 10^10)
                 0.0000
    Dipole Moment (Debye)
         X      18.6401      Y     -40.0051      Z       9.9295
       Tot      45.2378
    Quadrupole Moments (Debye-Ang)
        XX    -219.1615     XY     -96.7683     YY     102.3405
        XZ      13.3208     YZ     -80.4075     ZZ    -236.5019

 Total job time:  20952.19s(wall), 79912.34s(cpu)
        *  Thank you very much for using Q-Chem.  Have a nice day.  *
