 Q-Chem 5.0, Q-Chem, Inc., Pleasanton, CA (2017)
 Q-Chem 5.0.1 for Intel X86 EM64T Linux

User input:
--------------------------------------------------------------
$rem
threads 8
jobtype sp
method PBEh-3c
basis def2-mSVP
mem_static      1024
mem_total       8000
sym_ignore      true
unrestricted true
scf_algorithm	diis
scf_max_cycles	250
solvent_method  pcm
$end

$pcm
theory  iefpcm
$end

$solvent
dielectric      1.0001
$end

$molecule
read uincoords.mol
$end

--------------------------------------------------------------

   16   -1855.3930552153      8.08E-06 Convergence criterion met
 Total energy in the final basis set = -1855.39305522
 Total job time:  1238.25s(wall), 4466.23s(cpu)
        *  Thank you very much for using Q-Chem.  Have a nice day.  *
 Q-Chem 5.0, Q-Chem, Inc., Pleasanton, CA (2017)
 Q-Chem 5.0.1 for Intel X86 EM64T Linux

User input:
--------------------------------------------------------------

$rem
threads 8
jobtype opt
method PBEh-3c
basis def2-mSVP
mem_static      1024
mem_total       8000
sym_ignore      true
unrestricted true
scf_algorithm   diis
scf_max_cycles  250
solvent_method  pcm
geom_opt_tol_energy 25
geom_opt_tol_gradient 75
scf_guess	read
mom_start	1
$end

$pcm
theory  iefpcm
$end

$solvent
dielectric      1.0001
$end

$molecule
read uincoords.mol
$end

--------------------------------------------------------------

   30   -1855.3924967111      8.30E-09 Convergence criterion met
 Total energy in the final basis set = -1855.39249671
   27   -1855.4008981025      7.74E-09 Convergence criterion met
 Total energy in the final basis set = -1855.40089810
   19   -1855.4028533725      7.91E-09 Convergence criterion met
 Total energy in the final basis set = -1855.40285337
   17   -1855.4055602057      7.23E-09 Convergence criterion met
 Total energy in the final basis set = -1855.40556021
   15   -1855.4061076589      8.69E-09 Convergence criterion met
 Total energy in the final basis set = -1855.40610766
   17   -1855.4062411276      6.72E-09 Convergence criterion met
 Total energy in the final basis set = -1855.40624113
   15   -1855.4063666936      7.24E-09 Convergence criterion met
   16   -1855.4106382061      5.60E-09 Convergence criterion met
 Total energy in the final basis set = -1855.41063821
   14   -1855.4107473266      7.90E-09 Convergence criterion met
 Total energy in the final basis set = -1855.41074733
   13   -1855.4107368510      7.87E-09 Convergence criterion met
 Total energy in the final basis set = -1855.41073685
   14   -1855.4107470226      5.50E-09 Convergence criterion met
 Total energy in the final basis set = -1855.41074702
   12   -1855.4107406015      9.64E-09 Convergence criterion met
 Total energy in the final basis set = -1855.41074060
   10   -1855.4107410092      6.74E-09 Convergence criterion met
 Total energy in the final basis set = -1855.41074101

             Standard Nuclear Orientation (Angstroms)
    I     Atom           X                Y                Z
 ----------------------------------------------------------------
    1      C       0.1740377774    -4.5204370587     1.1516082295
    2      C       0.2407015575    -4.2681544255     2.6605706335
    3      C       1.6143900706    -4.1967811510     0.7578976010
    4      C       2.1737810133    -4.2761282225    -0.5018265675
    5      H       1.5830672126    -4.5955611743    -1.3521934686
    6      C       3.5119077838    -3.9388808328    -0.6569328258
    7      H       3.9675898396    -3.9872227772    -1.6371936969
    8      C       4.2692324060    -3.5387878962     0.4390396693
    9      H       5.3110283371    -3.2812738054     0.3027503172
   10      C       3.7055171674    -3.4689115975     1.7045117641
   11      H       4.3059199224    -3.1623052412     2.5513185243
   12      C       2.3675077671    -3.7984810836     1.8588688535
   13      C      -0.7669299680    -4.4125205943     3.5913941835
   14      H      -1.7511642849    -4.7570508926     3.3003338884
   15      C      -0.4971399715    -4.1085787574     4.9192520175
   16      H      -1.2748948318    -4.2169183373     5.6632406974
   17      C       0.7642499677    -3.6662002525     5.3001225155
   18      H       0.9574953308    -3.4316173724     6.3382585915
   19      C       1.7777356860    -3.5252482148     4.3639111230
   20      H       2.7592194102    -3.1839671668     4.6670214000
   21      C       1.5093856774    -3.8305352936     3.0393643940
   22      C      -2.1466712285    -3.6461458890     0.3419378597
   23      C      -2.9265871272    -2.5671324101    -0.0603416871
   24      H      -3.9814561788    -2.7215040876    -0.2459198970
   25      C      -2.3988808759    -1.3020758735    -0.2501568776
   26      C      -3.2458951008    -0.2366724185    -0.6738598586
   27      N      -3.9530399715     0.6040674697    -1.0168558067
   28      C      -0.7780610550    -3.4619341817     0.5748085220
   29      C      -0.2538828687    -2.1848546622     0.3753988097
   30      H       0.7974774293    -2.0014778395     0.5398913681
   31      C      -1.0330671692    -1.1140719527    -0.0336923704
   32      C      -0.4267337954     0.1606847190    -0.2346665482
   33      N       0.0767528380     1.1825351974    -0.3975981140
   34      H       5.3805013905    -6.5069728242    -0.2477531415
   35      H       7.1729614813    -7.7925225931     0.9187215149
   36      C       5.1340539047    -7.3249134521     0.4161167254
   37      C       6.1300317866    -8.0406512614     1.0615687429
   38      C       3.8074306095    -7.6423033061     0.6210573248
   39      H       3.0529805260    -7.0628112209     0.1089032769
   40      C       5.7709722029    -9.1026385726     1.8737732256
   41      H       6.5555273147    -9.6760461814     2.3504726199
   42      C       3.4442860227    -8.6827181206     1.4855298441
   43      C       4.4470003752    -9.4705949526     2.0805004954
   44      N       2.1001561449    -8.9311166947     1.7700397892
   45      C       2.6732002845   -11.0552985417     2.7012272633
   46      C       1.7442610141    -9.9068402380     2.6949332917
   47      H       2.8104940355   -13.1619749354     2.4388445137
   48      C       2.1588268892   -12.2996884278     2.5123002268
   49      C       0.3161138379   -10.1826934980     2.9113391809
   50      C       0.7589951337   -12.5178874757     2.4849358417
   51      C      -0.1400482913   -11.4460749993     2.7759793569
   52      H      -0.3494604018    -9.3799756765     3.2056156157
   53      H       0.3750034679   -13.5173814594     2.3366127346
   54      H      -1.1881161604   -11.6663460306     2.9399107132
   55      C       4.1150496221   -10.7029336196     2.9165089430
   56      C       4.2847998813   -10.3530923603     4.4094349465
   57      C       5.0338674222   -11.8721853876     2.5640805047
   58      C       1.0805572157    -8.1701525375     1.1512586540
   59      C       0.1909600323    -8.7688888701     0.2687290523
   60      C      -0.8149145679    -7.9973234712    -0.2691460697
   61      C      -0.9449408834    -6.6303363792    -0.0048441938
   62      C      -0.0184661564    -6.0188401015     0.8435694386
   63      C       0.9468429605    -6.8290354906     1.4436257525
   64      H       1.6478225167    -6.3969218815     2.1451255221
   65      H       0.2814865092    -9.8187198133     0.0254458053
   66      H      -1.5372168785    -8.4656938161    -0.9269939379
   67      C      -2.1363628846    -5.9391638507    -0.6019699727
   68      C      -2.8089776319    -4.9890600908     0.3847812249
   69      H      -2.8524439023    -6.7025780617    -0.9108624684
   70      H      -1.8716059050    -5.3931842961    -1.5123985938
   71      H      -2.7897804299    -5.4275511529     1.3858516677
   72      H      -3.8624130234    -4.8720174515     0.1270660537
   73      H       4.9509579889   -12.1421929797     1.5111872199
   74      H       4.7841455939   -12.7474132354     3.1650099213
   75      H       6.0776792456   -11.6438179807     2.7721099176
   76      H       3.5955517576    -9.5635567841     4.7093294768
   77      H       5.3002963835   -10.0087397960     4.6112885302
   78      H       4.0888117986   -11.2296540538     5.0286632050
 ----------------------------------------------------------------

    8   -1855.4107416805      8.68E-09 Convergence criterion met
 Total energy in the final basis set = -1855.41074168
 Final energy is   -1855.41074168048
 **  OPTIMIZATION CONVERGED  **

                    Orbital Energies (a.u.)
 --------------------------------------------------------------

 Alpha MOs
 -- Occupied --
-14.703 -14.657 -14.654 -10.522 -10.520 -10.512 -10.507 -10.500
-10.500 -10.498 -10.498 -10.495 -10.493 -10.491 -10.486 -10.479
-10.477 -10.476 -10.474 -10.474 -10.473 -10.473 -10.468 -10.468
-10.468 -10.468 -10.467 -10.467 -10.467 -10.466 -10.465 -10.464
-10.463 -10.463 -10.462 -10.457 -10.456 -10.449 -10.448 -10.446
-10.445 -10.444 -10.441 -10.441 -10.439 -10.429 -10.428  -1.104
 -1.042  -1.030  -1.020  -1.004  -0.987  -0.969  -0.963  -0.956
 -0.939  -0.933  -0.911  -0.899  -0.891  -0.885  -0.859  -0.857
 -0.850  -0.846  -0.838  -0.826  -0.822  -0.807  -0.795  -0.772
 -0.772  -0.748  -0.732  -0.726  -0.717  -0.712  -0.707  -0.692
 -0.682  -0.679  -0.673  -0.669  -0.665  -0.645  -0.622  -0.617
 -0.611  -0.606  -0.599  -0.584  -0.582  -0.573  -0.565  -0.561
 -0.551  -0.541  -0.536  -0.534  -0.530  -0.527  -0.524  -0.520
 -0.516  -0.510  -0.508  -0.504  -0.502  -0.501  -0.498  -0.495
 -0.491  -0.490  -0.486  -0.483  -0.477  -0.469  -0.461  -0.454
 -0.451  -0.448  -0.441  -0.440  -0.439  -0.436  -0.435  -0.433
 -0.431  -0.427  -0.425  -0.423  -0.420  -0.418  -0.417  -0.413
 -0.411  -0.404  -0.401  -0.399  -0.398  -0.396  -0.393  -0.383
 -0.377  -0.366  -0.350  -0.338  -0.323  -0.316  -0.313  -0.306
 -0.301  -0.299  -0.292  -0.288  -0.271  -0.238  -0.151

 Beta MOs
 -- Occupied --
-14.696 -14.657 -14.654 -10.522 -10.520 -10.512 -10.507 -10.500
-10.500 -10.499 -10.498 -10.496 -10.493 -10.491 -10.486 -10.478
-10.477 -10.476 -10.474 -10.474 -10.473 -10.468 -10.468 -10.468
-10.468 -10.467 -10.467 -10.467 -10.466 -10.465 -10.464 -10.463
-10.462 -10.462 -10.461 -10.455 -10.449 -10.447 -10.445 -10.445
-10.443 -10.443 -10.442 -10.440 -10.438 -10.429 -10.427  -1.089
 -1.042  -1.030  -1.020  -1.004  -0.986  -0.969  -0.960  -0.945
 -0.938  -0.933  -0.904  -0.899  -0.890  -0.884  -0.858  -0.857
 -0.847  -0.841  -0.830  -0.826  -0.818  -0.800  -0.791  -0.771
 -0.765  -0.748  -0.732  -0.724  -0.711  -0.710  -0.699  -0.690
 -0.682  -0.679  -0.673  -0.667  -0.660  -0.643  -0.615  -0.615
 -0.611  -0.602  -0.597  -0.583  -0.581  -0.572  -0.564  -0.561
 -0.544  -0.539  -0.535  -0.532  -0.528  -0.526  -0.522  -0.517
 -0.515  -0.510  -0.507  -0.502  -0.500  -0.499  -0.495  -0.494
 -0.490  -0.487  -0.483  -0.477  -0.472  -0.468  -0.460  -0.450
 -0.445  -0.442  -0.440  -0.438  -0.438  -0.436  -0.434  -0.431
 -0.430  -0.426  -0.425  -0.421  -0.420  -0.416  -0.414  -0.411
 -0.404  -0.401  -0.399  -0.396  -0.393  -0.392  -0.390  -0.375
 -0.363  -0.352  -0.350  -0.337  -0.322  -0.314  -0.306  -0.304
 -0.298  -0.286  -0.281  -0.271  -0.257

          Ground-State Mulliken Net Atomic Charges

     Atom                 Charge (a.u.)    Spin (a.u.)
  --------------------------------------------------------
      1 C                    -0.431916       0.001317
      2 C                     0.161150      -0.000354
      3 C                     0.031255      -0.000526
      4 C                    -0.257783       0.000243
      5 H                     0.229609      -0.000027
      6 C                    -0.239797      -0.000166
      7 H                     0.230985       0.000006
      8 C                    -0.210984       0.000305
      9 H                     0.230234      -0.000021
     10 C                    -0.324669      -0.000183
     11 H                     0.214712       0.000006
     12 C                     0.166321       0.000068
     13 C                    -0.279219       0.000062
     14 H                     0.216330      -0.000008
     15 C                    -0.222312      -0.000035
     16 H                     0.228007      -0.000001
     17 C                    -0.216712       0.000067
     18 H                     0.229283      -0.000004
     19 C                    -0.321257      -0.000036
     20 H                     0.213703      -0.000002
     21 C                     0.136903       0.000077
     22 C                     0.105919       0.000068
     23 C                    -0.318733      -0.000033
     24 H                     0.246257      -0.000002
     25 C                     0.079735       0.000075
     26 C                    -0.007006      -0.000023
     27 N                    -0.153757       0.000029
     28 C                     0.208301      -0.000097
     29 C                    -0.296349       0.000101
     30 H                     0.281510      -0.000005
     31 C                     0.092236      -0.000040
     32 C                    -0.008963       0.000012
     33 N                    -0.154685      -0.000011
     34 H                     0.214655       0.003266
     35 H                     0.212441      -0.006121
     36 C                    -0.225448      -0.064216
     37 C                    -0.225164       0.107134
     38 C                    -0.301236       0.092906
     39 H                     0.263048      -0.005289
     40 C                    -0.291023      -0.069952
     41 H                     0.209477       0.003676
     42 C                     0.319865      -0.074080
     43 C                     0.145301       0.123142
     44 N                    -0.590007       0.192599
     45 C                     0.099142       0.420794
     46 C                     0.142763       0.703227
     47 H                     0.210333       0.020552
     48 C                    -0.289816      -0.277056
     49 C                    -0.304134       0.316442
     50 C                    -0.247497       0.704146
     51 C                    -0.203335      -0.183488
     52 H                     0.237258      -0.010018
     53 H                     0.216688      -0.043127
     54 H                     0.214045       0.011597
     55 C                    -0.203733      -0.038783
     56 C                    -0.591171       0.025306
     57 C                    -0.644256       0.004977
     58 C                     0.233738      -0.021470
     59 C                    -0.222654       0.030734
     60 C                    -0.300509      -0.020295
     61 C                     0.057431       0.030125
     62 C                     0.229798      -0.016856
     63 C                    -0.288592       0.036537
     64 H                     0.279718      -0.002052
     65 H                     0.253210      -0.001880
     66 H                     0.219202       0.001553
     67 C                    -0.515030      -0.002544
     68 C                    -0.546383       0.000484
     69 H                     0.247467       0.000248
     70 H                     0.252366       0.001438
     71 H                     0.257186      -0.000005
     72 H                     0.252093       0.000113
     73 H                     0.238342       0.000073
     74 H                     0.221816       0.000488
     75 H                     0.224033      -0.001049
     76 H                     0.240877       0.000165
     77 H                     0.216252       0.004739
     78 H                     0.223134       0.000957
  --------------------------------------------------------
  Sum of atomic charges =    -0.000000

                    Cartesian Multipole Moments
 -----------------------------------------------------------------
    Charge (ESU x 10^10)
                -0.0000
    Dipole Moment (Debye)
         X       1.1902      Y      -6.8926      Z       1.7410
       Tot       7.2081
    Quadrupole Moments (Debye-Ang)
        XX    -250.5277     XY      16.6149     YY    -258.1392
        XZ      -0.4193     YZ       5.0772     ZZ    -260.3249

 Total job time:  63570.89s(wall), 229906.54s(cpu)
        *  Thank you very much for using Q-Chem.  Have a nice day.  *
