 Q-Chem 5.0, Q-Chem, Inc., Pleasanton, CA (2017)
 Q-Chem 5.0.1 for Intel X86 EM64T Linux

User input:
--------------------------------------------------------------
$rem
threads 8
jobtype sp
method PBEh-3c
basis def2-mSVP
mem_static      1024
mem_total       8000
sym_ignore      true
unrestricted true
scf_algorithm	diis
scf_max_cycles	250
solvent_method  pcm
$end

$pcm
theory  iefpcm
$end
$solvent
dielectric      4.33
$end

$molecule
read uincoords.mol
$end

--------------------------------------------------------------

    9   -1855.4397255399      5.91E-06 Convergence criterion met
 Total energy in the final basis set = -1855.43972554
 Total job time:  732.13s(wall), 2725.43s(cpu)
        *  Thank you very much for using Q-Chem.  Have a nice day.  *
 Q-Chem 5.0, Q-Chem, Inc., Pleasanton, CA (2017)
 Q-Chem 5.0.1 for Intel X86 EM64T Linux

User input:
--------------------------------------------------------------

$rem
threads 8
jobtype opt
method PBEh-3c
basis def2-mSVP
mem_static      1024
mem_total       8000
sym_ignore      true
unrestricted true
scf_algorithm   diis
scf_max_cycles  250
solvent_method  pcm
geom_opt_tol_energy 25
geom_opt_tol_gradient 75
scf_guess	read
mom_start	1
$end

$pcm
theory  iefpcm
$end
$solvent
dielectric      4.33
$end

$molecule
read uincoords.mol
$end

--------------------------------------------------------------

   20   -1855.4393046652      6.83E-09 Convergence criterion met
 Total energy in the final basis set = -1855.43930467
   17   -1855.4477049681      6.33E-09 Convergence criterion met
 Total energy in the final basis set = -1855.44770497
   17   -1855.4487441849      9.08E-09 Convergence criterion met
 Total energy in the final basis set = -1855.44874418
   17   -1855.4488996126      7.46E-09 Convergence criterion met
 Total energy in the final basis set = -1855.44889961
   17   -1855.4489266647      7.31E-09 Convergence criterion met
 Total energy in the final basis set = -1855.44892666
   17   -1855.4487215251      7.59E-09 Convergence criterion met
 Total energy in the final basis set = -1855.44872153
   16   -1855.4488329050      9.25E-09 Convergence criterion met
 Total energy in the final basis set = -1855.44883290
   17   -1855.4488063436      4.63E-09 Convergence criterion met
 Total energy in the final basis set = -1855.44880634
   17   -1855.4487733595      4.39E-09 Convergence criterion met
 Total energy in the final basis set = -1855.44877336
   17   -1855.4487477494      4.69E-09 Convergence criterion met
 Total energy in the final basis set = -1855.44874775
   17   -1855.4487361665      5.02E-09 Convergence criterion met
 Total energy in the final basis set = -1855.44873617

             Standard Nuclear Orientation (Angstroms)
    I     Atom           X                Y                Z
 ----------------------------------------------------------------
    1      C       0.1524023129    -4.5124018492     1.1453665833
    2      C      -0.0066635956    -4.3827619973     2.6631961359
    3      C       1.6311010261    -4.1545987667     1.0022450422
    4      C       2.3800942076    -4.1490454591    -0.1590638423
    5      H       1.9216469825    -4.3800756427    -1.1134861706
    6      C       3.7281438673    -3.8210974737    -0.0818075446
    7      H       4.3278737344    -3.7970467613    -0.9827026849
    8      C       4.3100350555    -3.5110978127     1.1444645874
    9      H       5.3606609478    -3.2553384252     1.1881460034
   10      C       3.5558658933    -3.5199430137     2.3094495838
   11      H       4.0149149724    -3.2763379318     3.2594842240
   12      C       2.2083208092    -3.8447433721     2.2303200956
   13      C      -1.1414678345    -4.5833523586     3.4262702666
   14      H      -2.0732007046    -4.8954998775     2.9732099073
   15      C      -1.0771485047    -4.3644900763     4.7975029268
   16      H      -1.9610716580    -4.5125273155     5.4043539329
   17      C       0.1082202240    -3.9503704723     5.3956950564
   18      H       0.1389624086    -3.7785412999     6.4636607688
   19      C       1.2497382673    -3.7498803078     4.6311281841
   20      H       2.1708232505    -3.4226464204     5.0973993925
   21      C       1.1843353644    -3.9681897918     3.2636047294
   22      C      -2.1437248869    -3.6550506957     0.2255687364
   23      C      -2.9190765918    -2.5876881698    -0.1361976708
   24      H      -3.9718540655    -2.7572783797    -0.3351584712
   25      C      -2.4183982033    -1.2801779545    -0.3113411825
   26      C      -3.2725775700    -0.2371746658    -0.6715348686
   27      N      -3.9927512818     0.6256665677    -0.9767871477
   28      C      -0.7305108446    -3.4660420210     0.4631647059
   29      C      -0.2196270451    -2.2025161604     0.2506077250
   30      H       0.8343973661    -2.0152027948     0.4055601930
   31      C      -0.9946642715    -1.1051537560    -0.1485213422
   32      C      -0.3722586420     0.1295742405    -0.3798048644
   33      N       0.1421618924     1.1537189086    -0.5707366659
   34      H       5.4130292499    -6.5819477052    -0.5648946710
   35      H       7.1960520163    -8.0251046422     0.3998732983
   36      C       5.1604273558    -7.4034972632     0.0904664902
   37      C       6.1566081221    -8.2120336798     0.6326313965
   38      C       3.8435564123    -7.6505095138     0.3865263076
   39      H       3.0812524313    -7.0209704056    -0.0465631291
   40      C       5.8178483846    -9.2704415605     1.4606045323
   41      H       6.6090090946    -9.9006694962     1.8420346437
   42      C       3.5033779367    -8.7052065631     1.2586785469
   43      C       4.5002440247    -9.5453089794     1.7948130219
   44      N       2.1812335793    -8.9186764207     1.5839515918
   45      C       2.7114293309   -10.7788134815     3.0247927248
   46      C       1.7790439637    -9.8659195707     2.4990389855
   47      H       2.9172839711   -12.4818850169     4.3054114064
   48      C       2.2372611904   -11.7453542383     3.9004566504
   49      C       0.4268157392    -9.9045695946     2.8984656822
   50      C       0.9046374244   -11.8022331825     4.2743242324
   51      C      -0.0008883059   -10.8668648028     3.7783839208
   52      H      -0.2765336640    -9.1746351650     2.5271484873
   53      H       0.5729115916   -12.5704413232     4.9595061702
   54      H      -1.0376071809   -10.8906837777     4.0835050734
   55      C       4.1627522157   -10.7648977341     2.6183022365
   56      C       5.0484644619   -10.8142895010     3.8748209919
   57      C       4.4212242121   -12.0111209136     1.7407125317
   58      C       1.1682795674    -8.1288651887     0.9445063927
   59      C       0.3946851987    -8.6950584202    -0.0548545885
   60      C      -0.5873227172    -7.9063532348    -0.6117011528
   61      C      -0.7939769219    -6.5705129914    -0.2415678289
   62      C       0.0471699549    -5.9934588858     0.7167756294
   63      C       0.9888111762    -6.8224716197     1.3319188072
   64      H       1.6195043676    -6.4294213515     2.1184325155
   65      H       0.5402782116    -9.7204605055    -0.3688943711
   66      H      -1.2334603899    -8.3379047689    -1.3659914683
   67      C      -1.9736820309    -5.8799962230    -0.8613792031
   68      C      -2.7431389778    -5.0247362702     0.1451300169
   69      H      -2.6308369436    -6.6473423101    -1.2753073547
   70      H      -1.6646654401    -5.2575371418    -1.7059143224
   71      H      -2.7689011358    -5.5494633510     1.1071437776
   72      H      -3.7829247094    -4.9391779522    -0.1743879258
   73      H       3.8052187515   -11.9957296577     0.8414515106
   74      H       4.1914372465   -12.9210061106     2.2951425793
   75      H       5.4671651256   -12.0537732218     1.4377997291
   76      H       4.8773475614    -9.9447303986     4.5082535526
   77      H       6.1042830067   -10.8444189534     3.6123653116
   78      H       4.8500636583   -11.7088436052     4.4625739456
 ----------------------------------------------------------------

   17   -1855.4487445575      6.39E-09 Convergence criterion met
 Total energy in the final basis set = -1855.44874456
 Final energy is   -1855.44874455747
 **  OPTIMIZATION CONVERGED  **

                    Orbital Energies (a.u.)
 --------------------------------------------------------------

 Alpha MOs
 -- Occupied --
-14.792 -14.603 -14.600 -10.550 -10.549 -10.520 -10.512 -10.512
-10.510 -10.494 -10.493 -10.492 -10.492 -10.486 -10.485 -10.484
-10.484 -10.483 -10.482 -10.479 -10.478 -10.476 -10.467 -10.459
-10.459 -10.458 -10.457 -10.456 -10.455 -10.454 -10.454 -10.453
-10.452 -10.452 -10.452 -10.450 -10.448 -10.447 -10.447 -10.442
-10.442 -10.439 -10.437 -10.435 -10.435 -10.431 -10.430  -1.176
 -1.020  -1.012  -1.011  -0.985  -0.981  -0.970  -0.956  -0.953
 -0.946  -0.915  -0.909  -0.906  -0.886  -0.878  -0.873  -0.863
 -0.860  -0.843  -0.840  -0.836  -0.814  -0.810  -0.800  -0.776
 -0.768  -0.766  -0.747  -0.726  -0.718  -0.716  -0.708  -0.692
 -0.679  -0.670  -0.667  -0.663  -0.661  -0.656  -0.651  -0.633
 -0.603  -0.595  -0.586  -0.585  -0.583  -0.571  -0.570  -0.565
 -0.556  -0.550  -0.545  -0.544  -0.540  -0.532  -0.529  -0.526
 -0.519  -0.514  -0.512  -0.507  -0.507  -0.497  -0.493  -0.489
 -0.488  -0.483  -0.481  -0.477  -0.474  -0.466  -0.465  -0.463
 -0.461  -0.456  -0.455  -0.446  -0.444  -0.441  -0.437  -0.429
 -0.427  -0.422  -0.420  -0.418  -0.413  -0.412  -0.408  -0.403
 -0.402  -0.398  -0.396  -0.390  -0.389  -0.383  -0.374  -0.357
 -0.352  -0.348  -0.345  -0.339  -0.335  -0.330  -0.323  -0.312
 -0.296  -0.292  -0.289  -0.282  -0.271  -0.257  -0.123

 Beta MOs
 -- Occupied --
-14.781 -14.600 -14.595 -10.551 -10.551 -10.521 -10.511 -10.509
-10.509 -10.492 -10.490 -10.489 -10.488 -10.486 -10.486 -10.486
-10.485 -10.485 -10.483 -10.479 -10.477 -10.475 -10.467 -10.459
-10.459 -10.458 -10.457 -10.456 -10.456 -10.454 -10.454 -10.453
-10.453 -10.452 -10.452 -10.450 -10.448 -10.447 -10.447 -10.442
-10.438 -10.437 -10.435 -10.434 -10.433 -10.432 -10.428  -1.157
 -1.017  -1.008  -1.008  -0.983  -0.975  -0.963  -0.953  -0.952
 -0.942  -0.913  -0.908  -0.902  -0.883  -0.877  -0.869  -0.860
 -0.857  -0.840  -0.836  -0.831  -0.810  -0.809  -0.798  -0.773
 -0.766  -0.761  -0.743  -0.725  -0.716  -0.713  -0.705  -0.689
 -0.677  -0.669  -0.665  -0.662  -0.658  -0.655  -0.650  -0.631
 -0.600  -0.585  -0.582  -0.581  -0.578  -0.570  -0.569  -0.564
 -0.552  -0.549  -0.543  -0.541  -0.533  -0.530  -0.526  -0.524
 -0.518  -0.513  -0.510  -0.506  -0.499  -0.497  -0.488  -0.485
 -0.483  -0.482  -0.477  -0.476  -0.473  -0.465  -0.464  -0.461
 -0.457  -0.454  -0.449  -0.444  -0.440  -0.433  -0.428  -0.425
 -0.425  -0.418  -0.414  -0.413  -0.411  -0.407  -0.401  -0.399
 -0.397  -0.396  -0.393  -0.388  -0.381  -0.372  -0.370  -0.350
 -0.344  -0.342  -0.336  -0.334  -0.325  -0.324  -0.319  -0.309
 -0.294  -0.288  -0.269  -0.258  -0.234

          Ground-State Mulliken Net Atomic Charges

     Atom                 Charge (a.u.)    Spin (a.u.)
  --------------------------------------------------------
      1 C                    -0.395763      -0.011044
      2 C                     0.171950       0.003719
      3 C                     0.018964       0.004235
      4 C                    -0.271808      -0.000746
      5 H                     0.249684       0.000416
      6 C                    -0.255720       0.001673
      7 H                     0.242164      -0.000087
      8 C                    -0.235143      -0.001966
      9 H                     0.243564       0.000129
     10 C                    -0.350027       0.001817
     11 H                     0.234715      -0.000079
     12 C                     0.154022      -0.003380
     13 C                    -0.311145       0.015772
     14 H                     0.243192      -0.001007
     15 C                    -0.241616      -0.010058
     16 H                     0.242092       0.000597
     17 C                    -0.246028       0.016245
     18 H                     0.241949      -0.000995
     19 C                    -0.340201      -0.008472
     20 H                     0.231559       0.000595
     21 C                     0.107361       0.010509
     22 C                     0.092070       0.167272
     23 C                    -0.337711      -0.090230
     24 H                     0.223468       0.003642
     25 C                    -0.015266       0.323271
     26 C                    -0.058967      -0.085005
     27 N                    -0.303954       0.205563
     28 C                     0.106101       0.232874
     29 C                    -0.305181      -0.138683
     30 H                     0.248214       0.006944
     31 C                    -0.007327       0.257434
     32 C                    -0.047291      -0.067387
     33 N                    -0.295136       0.156535
     34 H                     0.274209       0.005868
     35 H                     0.275546      -0.013433
     36 C                    -0.242641      -0.129510
     37 C                    -0.203580       0.251664
     38 C                    -0.266067       0.180622
     39 H                     0.315049      -0.009966
     40 C                    -0.307961      -0.148503
     41 H                     0.264844       0.006965
     42 C                     0.305279      -0.091935
     43 C                     0.185680       0.225493
     44 N                    -0.607769       0.436269
     45 C                     0.193369       0.224184
     46 C                     0.297631      -0.095354
     47 H                     0.265395       0.006908
     48 C                    -0.309323      -0.147383
     49 C                    -0.263911       0.177873
     50 C                    -0.204043       0.246515
     51 C                    -0.246008      -0.127228
     52 H                     0.310406      -0.009512
     53 H                     0.275665      -0.013162
     54 H                     0.276794       0.005769
     55 C                    -0.238285      -0.037438
     56 C                    -0.627572       0.017200
     57 C                    -0.604884       0.026220
     58 C                     0.120349      -0.032233
     59 C                    -0.224881       0.022594
     60 C                    -0.318351      -0.007804
     61 C                     0.064539       0.013662
     62 C                     0.220957      -0.002312
     63 C                    -0.253076       0.024983
     64 H                     0.291735      -0.001266
     65 H                     0.267094      -0.001115
     66 H                     0.255777       0.001428
     67 C                    -0.508971       0.006786
     68 C                    -0.554698      -0.014044
     69 H                     0.246987      -0.000999
     70 H                     0.266868       0.000157
     71 H                     0.228471       0.012083
     72 H                     0.253689       0.000458
     73 H                     0.245041      -0.001227
     74 H                     0.247901       0.000794
     75 H                     0.248927       0.000683
     76 H                     0.254251      -0.000478
     77 H                     0.248481      -0.000136
     78 H                     0.248297      -0.000243
  --------------------------------------------------------
  Sum of atomic charges =     0.000000

                    Cartesian Multipole Moments
 -----------------------------------------------------------------
    Charge (ESU x 10^10)
                 0.0000
    Dipole Moment (Debye)
         X      19.5711      Y     -42.4881      Z      10.3830
       Tot      47.9174
    Quadrupole Moments (Debye-Ang)
        XX    -216.2023     XY    -101.3074     YY     122.5584
        XZ      13.7956     YZ     -83.9035     ZZ    -233.6512

 Total job time:  26232.71s(wall), 96577.04s(cpu)
        *  Thank you very much for using Q-Chem.  Have a nice day.  *
