 Q-Chem 5.0, Q-Chem, Inc., Pleasanton, CA (2017)
 Q-Chem 5.0.1 for Intel X86 EM64T Linux

User input:
--------------------------------------------------------------
$rem
threads 8
jobtype sp
method PBEh-3c
basis def2-mSVP
mem_static      1024
mem_total       8000
sym_ignore      true
unrestricted true
scf_algorithm	diis
scf_max_cycles	250
solvent_method  pcm
$end

$pcm
theory  iefpcm
$end

$solvent
dielectric      2.03
$end

$molecule
read uincoords.mol
$end

--------------------------------------------------------------

   10   -1855.4158388899      5.75E-06 Convergence criterion met
 Total energy in the final basis set = -1855.41583889
 Total job time:  682.09s(wall), 2625.51s(cpu)
        *  Thank you very much for using Q-Chem.  Have a nice day.  *
 Q-Chem 5.0, Q-Chem, Inc., Pleasanton, CA (2017)
 Q-Chem 5.0.1 for Intel X86 EM64T Linux

User input:
--------------------------------------------------------------

$rem
threads 8
jobtype opt
method PBEh-3c
basis def2-mSVP
mem_static      1024
mem_total       8000
sym_ignore      true
unrestricted true
scf_algorithm   diis
scf_max_cycles  250
solvent_method  pcm
geom_opt_tol_energy 25
geom_opt_tol_gradient 75
mom_start	1
scf_guess	read
$end

$pcm
theory  iefpcm
$end

$solvent
dielectric      2.03
$end

$molecule
read uincoords.mol
$end

--------------------------------------------------------------

   21   -1855.4153180356      8.39E-09 Convergence criterion met
 Total energy in the final basis set = -1855.41531804
   19   -1855.4233041974      5.40E-09 Convergence criterion met
 Total energy in the final basis set = -1855.42330420
   18   -1855.4241202288      9.63E-09 Convergence criterion met
 Total energy in the final basis set = -1855.42412023
   18   -1855.4247558690      7.08E-09 Convergence criterion met
 Total energy in the final basis set = -1855.42475587
   19   -1855.4247587353      6.45E-09 Convergence criterion met
 Total energy in the final basis set = -1855.42475874
   18   -1855.4246800070      9.14E-09 Convergence criterion met
 Total energy in the final basis set = -1855.42468001
   18   -1855.4246434886      6.61E-09 Convergence criterion met
 Total energy in the final basis set = -1855.42464349
   18   -1855.4246905110      5.30E-09 Convergence criterion met
 Total energy in the final basis set = -1855.42469051
   18   -1855.4246449902      4.83E-09 Convergence criterion met
 Total energy in the final basis set = -1855.42464499
   18   -1855.4246431519      6.52E-09 Convergence criterion met
 Total energy in the final basis set = -1855.42464315
   18   -1855.4246376007      8.23E-09 Convergence criterion met
 Total energy in the final basis set = -1855.42463760
   18   -1855.4246343776      8.20E-09 Convergence criterion met
 Total energy in the final basis set = -1855.42463438

             Standard Nuclear Orientation (Angstroms)
    I     Atom           X                Y                Z
 ----------------------------------------------------------------
    1      C       0.1557054049    -4.5067250294     1.1358207379
    2      C       0.0169324348    -4.3652356714     2.6535183263
    3      C       1.6339387535    -4.1576402604     0.9721156626
    4      C       2.3645552948    -4.1515220470    -0.2007940763
    5      H       1.8863642654    -4.3704254809    -1.1482870289
    6      C       3.7138939053    -3.8244863062    -0.1450367573
    7      H       4.2960595112    -3.7877972472    -1.0571347364
    8      C       4.3158593996    -3.5201044311     1.0725968531
    9      H       5.3659562561    -3.2596914427     1.0998070858
   10      C       3.5804031544    -3.5312508200     2.2492153400
   11      H       4.0544453182    -3.2859964967     3.1913550215
   12      C       2.2307743106    -3.8510204552     2.1918946918
   13      C      -1.1138818625    -4.5401197562     3.4292085013
   14      H      -2.0564586344    -4.8312676182     2.9848681825
   15      C      -1.0318869124    -4.3114758469     4.7970497785
   16      H      -1.9129711695    -4.4357382020     5.4132575141
   17      C       0.1657212171    -3.9124873265     5.3808091406
   18      H       0.2088157528    -3.7304214975     6.4465622138
   19      C       1.3016543988    -3.7337828053     4.6033238587
   20      H       2.2305291934    -3.4119746174     5.0578008012
   21      C       1.2193987988    -3.9614752314     3.2386594273
   22      C      -2.1503666056    -3.6646475156     0.2436299353
   23      C      -2.9328646604    -2.5981996171    -0.1085146622
   24      H      -3.9900767824    -2.7673327123    -0.2831353602
   25      C      -2.4362655067    -1.2954308044    -0.3064812667
   26      C      -3.3046008471    -0.2567987842    -0.6561110407
   27      N      -4.0432253054     0.5914063809    -0.9516486413
   28      C      -0.7320136734    -3.4751632552     0.4449012409
   29      C      -0.2267778662    -2.2097379555     0.2102537163
   30      H       0.8300469115    -2.0193830247     0.3409983732
   31      C      -1.0093758970    -1.1209197356    -0.1804911199
   32      C      -0.3847849776     0.1107380379    -0.4413874383
   33      N       0.1413733942     1.1226298394    -0.6540662255
   34      H       5.4362625157    -6.4718723302    -0.3798451744
   35      H       7.2104362160    -7.9458711224     0.5570498019
   36      C       5.1780966260    -7.3218873921     0.2354311735
   37      C       6.1678620517    -8.1463668397     0.7629890600
   38      C       3.8571283438    -7.5873099206     0.4953186327
   39      H       3.1011030732    -6.9422369923     0.0740624215
   40      C       5.8194453202    -9.2377013292     1.5430611919
   41      H       6.6069928204    -9.8787444493     1.9134874629
   42      C       3.5064139073    -8.6765485130     1.3193243297
   43      C       4.4981391012    -9.5305009813     1.8438523940
   44      N       2.1790759785    -8.9120119513     1.6087165178
   45      C       2.6972003980   -10.8076082765     3.0098425395
   46      C       1.7698384720    -9.8830441852     2.4969202129
   47      H       2.8902309218   -12.5417542829     4.2498541997
   48      C       2.2142571576   -11.7954120058     3.8562860338
   49      C       0.4148860518    -9.9296745068     2.8847574329
   50      C       0.8782480745   -11.8616486143     4.2160258043
   51      C      -0.0215369579   -10.9133962984     3.7365495889
   52      H      -0.2820931303    -9.1864363400     2.5282122628
   53      H       0.5402220146   -12.6463658045     4.8790249218
   54      H      -1.0603909420   -10.9420684278     4.0336563766
   55      C       4.1524183084   -10.7822166766     2.6157654150
   56      C       5.0285184658   -10.8832967450     3.8753761438
   57      C       4.4147860151   -11.9938560347     1.6922077091
   58      C       1.1680227416    -8.1255197404     0.9635225653
   59      C       0.3952230950    -8.6980605805    -0.0339400223
   60      C      -0.5885565088    -7.9135846086    -0.5933973130
   61      C      -0.7977736431    -6.5760878937    -0.2298391878
   62      C       0.0443752767    -5.9924529916     0.7244197260
   63      C       0.9840455935    -6.8179483240     1.3459421210
   64      H       1.6069473927    -6.4186895392     2.1356642166
   65      H       0.5433404872    -9.7240285107    -0.3451357587
   66      H      -1.2343178966    -8.3493999378    -1.3455830162
   67      C      -1.9820555083    -5.8891045631    -0.8435725625
   68      C      -2.7451588081    -5.0362729467     0.1716948187
   69      H      -2.6384494321    -6.6579753536    -1.2569625945
   70      H      -1.6786899984    -5.2609897205    -1.6856804434
   71      H      -2.7576531275    -5.5643273842     1.1335669188
   72      H      -3.7890302332    -4.9565452316    -0.1360876707
   73      H       3.8046577255   -11.9452109667     0.7901541851
   74      H       4.1811153099   -12.9253819167     2.2080984192
   75      H       5.4619576568   -12.0265252434     1.3920861554
   76      H       4.8579995001   -10.0374040808     4.5399964105
   77      H       6.0863968456   -10.9102578881     3.6213888093
   78      H       4.8226567532   -11.7975728222     4.4289227211
 ----------------------------------------------------------------

   18   -1855.4246296506      8.22E-09 Convergence criterion met
 Total energy in the final basis set = -1855.42462965
 Final energy is   -1855.42462965065
 **  OPTIMIZATION CONVERGED  **

                    Orbital Energies (a.u.)
 --------------------------------------------------------------

 Alpha MOs
 -- Occupied --
-14.804 -14.585 -14.580 -10.561 -10.561 -10.528 -10.525 -10.525
-10.524 -10.507 -10.506 -10.504 -10.504 -10.499 -10.497 -10.496
-10.493 -10.488 -10.485 -10.483 -10.482 -10.481 -10.473 -10.473
-10.470 -10.459 -10.458 -10.455 -10.454 -10.454 -10.453 -10.453
-10.452 -10.449 -10.446 -10.445 -10.444 -10.442 -10.435 -10.432
-10.431 -10.427 -10.425 -10.424 -10.423 -10.419 -10.418  -1.187
 -1.030  -1.024  -1.012  -0.990  -0.969  -0.963  -0.952  -0.950
 -0.938  -0.918  -0.911  -0.911  -0.899  -0.879  -0.877  -0.873
 -0.860  -0.846  -0.839  -0.827  -0.816  -0.812  -0.808  -0.781
 -0.779  -0.769  -0.750  -0.731  -0.727  -0.718  -0.711  -0.688
 -0.681  -0.678  -0.675  -0.668  -0.663  -0.655  -0.649  -0.633
 -0.604  -0.598  -0.594  -0.592  -0.583  -0.582  -0.582  -0.565
 -0.559  -0.555  -0.552  -0.546  -0.545  -0.540  -0.539  -0.531
 -0.526  -0.518  -0.515  -0.513  -0.506  -0.502  -0.496  -0.492
 -0.490  -0.488  -0.483  -0.480  -0.478  -0.475  -0.473  -0.471
 -0.463  -0.461  -0.455  -0.452  -0.450  -0.440  -0.437  -0.435
 -0.432  -0.425  -0.423  -0.422  -0.415  -0.411  -0.408  -0.398
 -0.395  -0.389  -0.386  -0.381  -0.372  -0.370  -0.365  -0.360
 -0.350  -0.344  -0.343  -0.335  -0.332  -0.327  -0.325  -0.317
 -0.302  -0.293  -0.289  -0.270  -0.259  -0.253  -0.107

 Beta MOs
 -- Occupied --
-14.792 -14.581 -14.576 -10.563 -10.563 -10.528 -10.525 -10.522
-10.521 -10.504 -10.502 -10.501 -10.501 -10.501 -10.499 -10.498
-10.495 -10.488 -10.484 -10.483 -10.483 -10.481 -10.473 -10.472
-10.469 -10.458 -10.458 -10.454 -10.454 -10.454 -10.453 -10.453
-10.452 -10.449 -10.446 -10.445 -10.444 -10.442 -10.436 -10.432
-10.432 -10.425 -10.423 -10.421 -10.420 -10.418 -10.416  -1.168
 -1.026  -1.020  -1.011  -0.988  -0.965  -0.957  -0.951  -0.944
 -0.934  -0.915  -0.910  -0.908  -0.896  -0.878  -0.873  -0.869
 -0.858  -0.840  -0.837  -0.822  -0.814  -0.809  -0.807  -0.778
 -0.774  -0.766  -0.747  -0.729  -0.725  -0.714  -0.709  -0.684
 -0.679  -0.676  -0.672  -0.666  -0.662  -0.655  -0.647  -0.632
 -0.596  -0.594  -0.592  -0.584  -0.582  -0.581  -0.579  -0.564
 -0.556  -0.554  -0.548  -0.544  -0.542  -0.538  -0.537  -0.530
 -0.525  -0.515  -0.512  -0.505  -0.502  -0.497  -0.495  -0.489
 -0.488  -0.487  -0.482  -0.478  -0.476  -0.474  -0.470  -0.467
 -0.460  -0.459  -0.451  -0.448  -0.443  -0.438  -0.432  -0.431
 -0.427  -0.420  -0.420  -0.416  -0.410  -0.408  -0.401  -0.397
 -0.394  -0.387  -0.382  -0.376  -0.367  -0.363  -0.351  -0.347
 -0.338  -0.338  -0.334  -0.332  -0.330  -0.324  -0.321  -0.312
 -0.292  -0.287  -0.259  -0.254  -0.219

          Ground-State Mulliken Net Atomic Charges

     Atom                 Charge (a.u.)    Spin (a.u.)
  --------------------------------------------------------
      1 C                    -0.398053      -0.007867
      2 C                     0.176965       0.006796
      3 C                     0.020515       0.005168
      4 C                    -0.269614      -0.000290
      5 H                     0.246249       0.000598
      6 C                    -0.254359       0.001647
      7 H                     0.232913      -0.000084
      8 C                    -0.226341      -0.001783
      9 H                     0.232548       0.000124
     10 C                    -0.344059       0.001835
     11 H                     0.222480      -0.000069
     12 C                     0.157467      -0.003921
     13 C                    -0.302550       0.019864
     14 H                     0.236674      -0.001418
     15 C                    -0.232198      -0.012615
     16 H                     0.231391       0.000743
     17 C                    -0.237207       0.021509
     18 H                     0.230555      -0.001344
     19 C                    -0.334017      -0.010421
     20 H                     0.217453       0.000743
     21 C                     0.111054       0.012509
     22 C                     0.096232       0.181840
     23 C                    -0.327379      -0.106917
     24 H                     0.212226       0.004809
     25 C                    -0.005282       0.336057
     26 C                    -0.055568      -0.094456
     27 N                    -0.278748       0.201652
     28 C                     0.097066       0.243684
     29 C                    -0.297066      -0.141889
     30 H                     0.241308       0.007357
     31 C                     0.002805       0.246341
     32 C                    -0.044539      -0.069054
     33 N                    -0.270889       0.144532
     34 H                     0.269137       0.006005
     35 H                     0.267199      -0.013510
     36 C                    -0.234200      -0.131815
     37 C                    -0.197215       0.251513
     38 C                    -0.262570       0.182953
     39 H                     0.319891      -0.010084
     40 C                    -0.303445      -0.147166
     41 H                     0.252535       0.006977
     42 C                     0.298737      -0.093136
     43 C                     0.187009       0.223716
     44 N                    -0.607280       0.438984
     45 C                     0.195878       0.221058
     46 C                     0.289655      -0.099937
     47 H                     0.252994       0.006890
     48 C                    -0.304934      -0.145310
     49 C                    -0.258431       0.179397
     50 C                    -0.198013       0.242759
     51 C                    -0.240087      -0.128655
     52 H                     0.310434      -0.009534
     53 H                     0.267404      -0.013046
     54 H                     0.270168       0.005902
     55 C                    -0.242942      -0.037130
     56 C                    -0.621806       0.016406
     57 C                    -0.597539       0.025546
     58 C                     0.127952      -0.030983
     59 C                    -0.226435       0.025149
     60 C                    -0.312276      -0.008272
     61 C                     0.068792       0.017879
     62 C                     0.223741      -0.002115
     63 C                    -0.262053       0.029137
     64 H                     0.290285      -0.001511
     65 H                     0.253579      -0.001233
     66 H                     0.246394       0.001548
     67 C                    -0.504791       0.007469
     68 C                    -0.551096      -0.014217
     69 H                     0.235896      -0.001229
     70 H                     0.271527       0.000339
     71 H                     0.215828       0.013716
     72 H                     0.248679       0.000456
     73 H                     0.242907      -0.001223
     74 H                     0.243459       0.000810
     75 H                     0.245138       0.000687
     76 H                     0.255542      -0.000454
     77 H                     0.243490      -0.000155
     78 H                     0.242833      -0.000262
  --------------------------------------------------------
  Sum of atomic charges =     0.000000

                    Cartesian Multipole Moments
 -----------------------------------------------------------------
    Charge (ESU x 10^10)
                 0.0000
    Dipole Moment (Debye)
         X      18.2773      Y     -39.0885      Z       9.7568
       Tot      44.2398
    Quadrupole Moments (Debye-Ang)
        XX    -220.3083     XY     -94.7060     YY      94.9188
        XZ      13.2614     YZ     -79.0661     ZZ    -237.6662

 Total job time:  25114.81s(wall), 96948.11s(cpu)
        *  Thank you very much for using Q-Chem.  Have a nice day.  *
