 Q-Chem 5.0, Q-Chem, Inc., Pleasanton, CA (2017)
 Q-Chem 5.0.1 for Intel X86 EM64T Linux

User input:
--------------------------------------------------------------
$rem
threads 8
jobtype sp
method PBEh-3c
basis def2-mSVP
mem_static      1024
mem_total       8000
sym_ignore      true
unrestricted true
scf_algorithm	diis
scf_max_cycles	2500
solvent_method  pcm
$end

$pcm
theory  iefpcm
$end

$solvent
dielectric      8.93
$end

$molecule
read uincoords.mol
$end

--------------------------------------------------------------

    8   -1855.4530249998      6.97E-06 Convergence criterion met
 Total energy in the final basis set = -1855.45302500
 Total job time:  568.91s(wall), 2287.65s(cpu)
        *  Thank you very much for using Q-Chem.  Have a nice day.  *
 Q-Chem 5.0, Q-Chem, Inc., Pleasanton, CA (2017)
 Q-Chem 5.0.1 for Intel X86 EM64T Linux

User input:
--------------------------------------------------------------

$rem
threads 8
jobtype opt
method PBEh-3c
basis def2-mSVP
mem_static      1024
mem_total       8000
sym_ignore      true
unrestricted true
scf_algorithm   diis
scf_max_cycles  2500
solvent_method  pcm
geom_opt_tol_energy 25
geom_opt_tol_gradient 75
mom_start	1
scf_guess	read
$end

$pcm
theory  iefpcm
$end

$solvent
dielectric      8.93
$end

$molecule
read uincoords.mol
$end

--------------------------------------------------------------

   20   -1855.4527077187      8.61E-09 Convergence criterion met
 Total energy in the final basis set = -1855.45270772
   18   -1855.4613312523      7.24E-09 Convergence criterion met
 Total energy in the final basis set = -1855.46133125
   17   -1855.4623809798      5.96E-09 Convergence criterion met
 Total energy in the final basis set = -1855.46238098
   17   -1855.4625166760      6.36E-09 Convergence criterion met
 Total energy in the final basis set = -1855.46251668
   17   -1855.4625541784      6.83E-09 Convergence criterion met
 Total energy in the final basis set = -1855.46255418
   17   -1855.4624316473      6.55E-09 Convergence criterion met
 Total energy in the final basis set = -1855.46243165
   17   -1855.4624920359      6.08E-09 Convergence criterion met
 Total energy in the final basis set = -1855.46249204
   17   -1855.4624653347      6.25E-09 Convergence criterion met
 Total energy in the final basis set = -1855.46246533
   17   -1855.4624701647      6.63E-09 Convergence criterion met
 Total energy in the final basis set = -1855.46247016
   17   -1855.4624567040      8.02E-09 Convergence criterion met
 Total energy in the final basis set = -1855.46245670
   17   -1855.4624527672      8.21E-09 Convergence criterion met
 Total energy in the final basis set = -1855.46245277

             Standard Nuclear Orientation (Angstroms)
    I     Atom           X                Y                Z
 ----------------------------------------------------------------
    1      C       0.1530271891    -4.5212779950     1.1471069963
    2      C      -0.0233111612    -4.4041288543     2.6645305750
    3      C       1.6325109163    -4.1586291413     1.0228013771
    4      C       2.3971262380    -4.1511963253    -0.1283391830
    5      H       1.9547032930    -4.3886046698    -1.0887731487
    6      C       3.7439187360    -3.8225912255    -0.0322197263
    7      H       4.3578436004    -3.8054825846    -0.9235524950
    8      C       4.3084983241    -3.5108367118     1.2019049252
    9      H       5.3589853243    -3.2574632340     1.2602835691
   10      C       3.5385973625    -3.5210719841     2.3568296913
   11      H       3.9848180338    -3.2808006411     3.3138529104
   12      C       2.1930347011    -3.8492662934     2.2587416766
   13      C      -1.1627169987    -4.6246273182     3.4151893653
   14      H      -2.0848037133    -4.9511538196     2.9525414315
   15      C      -1.1143633787    -4.4148059347     4.7889665600
   16      H      -2.0013329226    -4.5812491172     5.3865734928
   17      C       0.0603459659    -3.9905214734     5.4012784338
   18      H       0.0795040113    -3.8278311657     6.4709854735
   19      C       1.2076060227    -3.7732667120     4.6494201805
   20      H       2.1218258022    -3.4433157941     5.1271569809
   21      C       1.1578431332    -3.9830304185     3.2796326457
   22      C      -2.1346389722    -3.6469972632     0.2137725715
   23      C      -2.9046192674    -2.5747838940    -0.1443537978
   24      H      -3.9551861558    -2.7410440348    -0.3570544895
   25      C      -2.3994339845    -1.2646510143    -0.2967065625
   26      C      -3.2433231197    -0.2132931636    -0.6515527595
   27      N      -3.9495957995     0.6638255796    -0.9518295226
   28      C      -0.7240283975    -3.4629311239     0.4719379426
   29      C      -0.2079737763    -2.1996882562     0.2795301151
   30      H       0.8447920103    -2.0171843921     0.4476929954
   31      C      -0.9773411916    -1.0937554132    -0.1148467662
   32      C      -0.3552384502     0.1436641718    -0.3209347168
   33      N       0.1524652170     1.1756161027    -0.4921237309
   34      H       5.3765643593    -6.6864714728    -0.7340136351
   35      H       7.1726930629    -8.0894900963     0.2636414283
   36      C       5.1324377711    -7.4792250139    -0.0408229209
   37      C       6.1367314720    -8.2666268516     0.5185181150
   38      C       3.8200784388    -7.7122762227     0.2852944989
   39      H       3.0507953967    -7.1019781501    -0.1628113196
   40      C       5.8099491377    -9.2920236986     1.3914888116
   41      H       6.6063477658    -9.9073194001     1.7866678779
   42      C       3.4925734384    -8.7326735990     1.2022576759
   43      C       4.4966879626    -9.5535445617     1.7535610009
   44      N       2.1758219095    -8.9299325829     1.5563635186
   45      C       2.7219691355   -10.7498614243     3.0400735464
   46      C       1.7822153529    -9.8546184574     2.4968582539
   47      H       2.9450333342   -12.4159242849     4.3656867253
   48      C       2.2583092999   -11.6946516315     3.9447643830
   49      C       0.4317596416    -9.8908564415     2.9030165752
   50      C       0.9280067473   -11.7482330978     4.3274031914
   51      C       0.0141643767   -10.8319933894     3.8102176516
   52      H      -0.2792933975    -9.1779445687     2.5136281952
   53      H       0.6039685018   -12.4995044623     5.0347093192
   54      H      -1.0213921600   -10.8551976623     4.1194582495
   55      C       4.1714007157   -10.7395108806     2.6283398829
   56      C       5.0596309007   -10.7282287405     3.8845390952
   57      C       4.4410168531   -12.0190364755     1.8040922437
   58      C       1.1613821082    -8.1380679121     0.9215914205
   59      C       0.3860177797    -8.6971675865    -0.0796348015
   60      C      -0.5915634061    -7.9015052640    -0.6350394859
   61      C      -0.7912789960    -6.5659710371    -0.2605038911
   62      C       0.0492941520    -5.9975553186     0.7031285975
   63      C       0.9885664478    -6.8324197008     1.3142084151
   64      H       1.6236431719    -6.4469559841     2.1010091239
   65      H       0.5273267864    -9.7222879382    -0.3964363027
   66      H      -1.2391800027    -8.3274789634    -1.3912108874
   67      C      -1.9631033108    -5.8663865304    -0.8856077697
   68      C      -2.7386432429    -5.0140218398     0.1179756733
   69      H      -2.6209052735    -6.6278879414    -1.3084607620
   70      H      -1.6445171515    -5.2423204108    -1.7255850822
   71      H      -2.7763317520    -5.5425308480     1.0767336958
   72      H      -3.7746079696    -4.9213242552    -0.2115198752
   73      H       3.8247278302   -12.0454771085     0.9052390281
   74      H       4.2193787280   -12.9061440758     2.3971259399
   75      H       5.4877505261   -12.0646500296     1.5044564685
   76      H       4.8766759998    -9.8382900410     4.4857731098
   77      H       6.1150028637   -10.7526175933     3.6195663172
   78      H       4.8728271029   -11.6040903402     4.5035586935
 ----------------------------------------------------------------

   17   -1855.4624503083      9.02E-09 Convergence criterion met
 Total energy in the final basis set = -1855.46245031
 Final energy is   -1855.46245030831
 **  OPTIMIZATION CONVERGED  **

                    Orbital Energies (a.u.)
 --------------------------------------------------------------

 Alpha MOs
 -- Occupied --
-14.786 -14.614 -14.611 -10.543 -10.543 -10.516 -10.505 -10.505
-10.503 -10.488 -10.488 -10.487 -10.485 -10.485 -10.484 -10.477
-10.477 -10.477 -10.476 -10.476 -10.473 -10.473 -10.467 -10.464
-10.464 -10.460 -10.460 -10.459 -10.458 -10.454 -10.452 -10.452
-10.452 -10.451 -10.451 -10.450 -10.449 -10.449 -10.448 -10.448
-10.446 -10.445 -10.443 -10.442 -10.438 -10.438 -10.437  -1.170
 -1.017  -1.009  -1.005  -0.992  -0.983  -0.981  -0.954  -0.953
 -0.949  -0.917  -0.909  -0.899  -0.880  -0.878  -0.874  -0.860
 -0.856  -0.843  -0.840  -0.840  -0.815  -0.810  -0.792  -0.777
 -0.766  -0.760  -0.745  -0.726  -0.717  -0.710  -0.707  -0.694
 -0.678  -0.671  -0.664  -0.661  -0.656  -0.654  -0.651  -0.633
 -0.608  -0.594  -0.585  -0.579  -0.578  -0.567  -0.564  -0.563
 -0.558  -0.550  -0.545  -0.540  -0.535  -0.532  -0.524  -0.518
 -0.517  -0.512  -0.509  -0.507  -0.504  -0.498  -0.492  -0.489
 -0.484  -0.483  -0.481  -0.475  -0.470  -0.466  -0.462  -0.461
 -0.457  -0.455  -0.451  -0.446  -0.442  -0.439  -0.436  -0.429
 -0.424  -0.422  -0.418  -0.416  -0.414  -0.413  -0.411  -0.408
 -0.402  -0.402  -0.398  -0.397  -0.390  -0.388  -0.377  -0.364
 -0.362  -0.355  -0.342  -0.338  -0.331  -0.324  -0.322  -0.309
 -0.298  -0.292  -0.288  -0.285  -0.278  -0.259  -0.132

 Beta MOs
 -- Occupied --
-14.774 -14.611 -14.606 -10.545 -10.544 -10.517 -10.503 -10.502
-10.502 -10.489 -10.485 -10.485 -10.484 -10.482 -10.481 -10.479
-10.479 -10.478 -10.477 -10.477 -10.473 -10.472 -10.468 -10.465
-10.464 -10.460 -10.460 -10.459 -10.458 -10.454 -10.452 -10.452
-10.452 -10.451 -10.450 -10.449 -10.448 -10.448 -10.447 -10.446
-10.445 -10.443 -10.442 -10.441 -10.439 -10.437 -10.435  -1.152
 -1.016  -1.004  -1.001  -0.985  -0.980  -0.974  -0.954  -0.948
 -0.945  -0.914  -0.907  -0.896  -0.878  -0.876  -0.869  -0.857
 -0.853  -0.841  -0.838  -0.833  -0.811  -0.809  -0.790  -0.774
 -0.763  -0.755  -0.742  -0.725  -0.713  -0.708  -0.704  -0.691
 -0.676  -0.670  -0.663  -0.658  -0.656  -0.651  -0.650  -0.630
 -0.605  -0.587  -0.578  -0.576  -0.574  -0.566  -0.563  -0.562
 -0.553  -0.549  -0.543  -0.535  -0.533  -0.526  -0.521  -0.517
 -0.516  -0.511  -0.508  -0.506  -0.500  -0.497  -0.489  -0.485
 -0.484  -0.477  -0.475  -0.472  -0.469  -0.466  -0.460  -0.458
 -0.454  -0.452  -0.444  -0.441  -0.439  -0.433  -0.429  -0.426
 -0.420  -0.419  -0.415  -0.412  -0.410  -0.408  -0.405  -0.401
 -0.398  -0.396  -0.394  -0.389  -0.386  -0.382  -0.376  -0.361
 -0.352  -0.352  -0.337  -0.329  -0.321  -0.318  -0.315  -0.307
 -0.296  -0.288  -0.277  -0.260  -0.242

          Ground-State Mulliken Net Atomic Charges

     Atom                 Charge (a.u.)    Spin (a.u.)
  --------------------------------------------------------
      1 C                    -0.393405      -0.012270
      2 C                     0.166879       0.002819
      3 C                     0.018447       0.004054
      4 C                    -0.273196      -0.000927
      5 H                     0.251399       0.000340
      6 C                    -0.257696       0.001683
      7 H                     0.248470      -0.000089
      8 C                    -0.241503      -0.001955
      9 H                     0.250114       0.000126
     10 C                    -0.353366       0.001778
     11 H                     0.242318      -0.000080
     12 C                     0.150871      -0.003141
     13 C                    -0.316841       0.014187
     14 H                     0.248365      -0.000829
     15 C                    -0.247294      -0.009038
     16 H                     0.248479       0.000537
     17 C                    -0.251485       0.014320
     18 H                     0.248635      -0.000866
     19 C                    -0.343723      -0.007721
     20 H                     0.240049       0.000536
     21 C                     0.104708       0.009700
     22 C                     0.088392       0.160410
     23 C                    -0.343275      -0.081387
     24 H                     0.231355       0.003075
     25 C                    -0.021181       0.315788
     26 C                    -0.060249      -0.079736
     27 N                    -0.316338       0.206966
     28 C                     0.110055       0.225910
     29 C                    -0.310213      -0.134351
     30 H                     0.251544       0.006617
     31 C                    -0.012542       0.259353
     32 C                    -0.048767      -0.065232
     33 N                    -0.307129       0.161291
     34 H                     0.278030       0.005781
     35 H                     0.279896      -0.013374
     36 C                    -0.248125      -0.128167
     37 C                    -0.207717       0.251407
     38 C                    -0.268472       0.179327
     39 H                     0.313050      -0.009856
     40 C                    -0.311004      -0.149158
     41 H                     0.272020       0.006950
     42 C                     0.309449      -0.091678
     43 C                     0.184699       0.226637
     44 N                    -0.607740       0.434609
     45 C                     0.191283       0.226077
     46 C                     0.303565      -0.093374
     47 H                     0.272643       0.006915
     48 C                    -0.312054      -0.148517
     49 C                    -0.267899       0.177054
     50 C                    -0.207959       0.248142
     51 C                    -0.249698      -0.126356
     52 H                     0.310628      -0.009503
     53 H                     0.279968      -0.013206
     54 H                     0.280232       0.005691
     55 C                    -0.234904      -0.037639
     56 C                    -0.630330       0.017862
     57 C                    -0.609882       0.026436
     58 C                     0.113459      -0.032385
     59 C                    -0.223697       0.020846
     60 C                    -0.322100      -0.006731
     61 C                     0.062590       0.010975
     62 C                     0.219872      -0.001532
     63 C                    -0.246976       0.022828
     64 H                     0.292579      -0.001160
     65 H                     0.274750      -0.001023
     66 H                     0.261076       0.001323
     67 C                    -0.511821       0.006602
     68 C                    -0.556480      -0.013951
     69 H                     0.254032      -0.000921
     70 H                     0.263400       0.000044
     71 H                     0.236838       0.011325
     72 H                     0.257163       0.000452
     73 H                     0.246683      -0.001209
     74 H                     0.250456       0.000764
     75 H                     0.251041       0.000653
     76 H                     0.252965      -0.000506
     77 H                     0.251435      -0.000105
     78 H                     0.251179      -0.000217
  --------------------------------------------------------
  Sum of atomic charges =     0.000000

                    Cartesian Multipole Moments
 -----------------------------------------------------------------
    Charge (ESU x 10^10)
                 0.0000
    Dipole Moment (Debye)
         X      20.0874      Y     -44.3316      Z      10.4511
       Tot      49.7797
    Quadrupole Moments (Debye-Ang)
        XX    -213.6923     XY    -104.3420     YY     136.2967
        XZ      14.3283     YZ     -85.9630     ZZ    -230.8929

 Total job time:  21998.77s(wall), 85884.07s(cpu)
        *  Thank you very much for using Q-Chem.  Have a nice day.  *
