                         Program Version 4.0.1 -  RELEASE  -
|  1> %maxcore 4250
|  2> %pal nprocs 16 end
|  3> !PBEh-3c RIJCOSX
|  4>
|  5> %tddft nroots	8
|  6> 	maxdim 120
|  7> 	triplets	true
|  8> 	donto	true
|  9> end
| 10>
| 11> *xyz 0 1
| 12>   C       0.142403     -4.598251      1.002259
| 13>   C       0.085793     -4.470315      2.524124
| 14>   C       1.581829     -4.164320      0.733878
| 15>   C       2.238118     -4.109797     -0.479289
| 16>   H       1.731926     -4.372829     -1.399862
| 17>   C       3.571272     -3.716664     -0.497119
| 18>   H       4.101888     -3.660706     -1.438370
| 19>   C       4.230561     -3.395007      0.684971
| 20>   H       5.269447     -3.094754      0.652581
| 21>   C       3.572291     -3.461715      1.904249
| 22>   H       4.093994     -3.220792      2.821521
| 23>   C       2.239708     -3.847061      1.922249
| 24>   C      -0.978668     -4.731219      3.362960
| 25>   H      -1.927127     -5.077807      2.971301
| 26>   C      -0.812311     -4.543006      4.729490
| 27>   H      -1.634244     -4.744719      5.403194
| 28>   C       0.402188     -4.097744      5.240078
| 29>   H       0.514252     -3.957941      6.306862
| 30>   C       1.470786     -3.832668      4.396143
| 31>   H       2.413875     -3.487091      4.800177
| 32>   C       1.305932     -4.021283      3.032122
| 33>   C      -2.133788     -3.788509      0.008498
| 34>   C      -2.964879     -2.715557     -0.302053
| 35>   H      -3.966134     -2.913890     -0.661933
| 36>   C      -2.552169     -1.400809     -0.172006
| 37>   C      -3.444243     -0.338316     -0.500430
| 38>   N      -4.181359      0.503182     -0.771334
| 39>   C      -0.836042     -3.545182      0.467043
| 40>   C      -0.422238     -2.216672      0.583197
| 41>   H       0.574969     -1.990581      0.933786
| 42>   C      -1.250965     -1.151334      0.274501
| 43>   C      -0.766015      0.182533      0.419770
| 44>   N      -0.360300      1.252706      0.540955
| 45>   H       5.680917     -6.302366      0.281614
| 46>   H       7.339204     -7.784594      1.395921
| 47>   C       5.362921     -7.205615      0.785554
| 48>   C       6.285783     -8.029784      1.404403
| 49>   C       4.013939     -7.513512      0.820067
| 50>   H       3.318534     -6.841961      0.337096
| 51>   C       5.845731     -9.191544      2.020079
| 52>   H       6.577984     -9.843395      2.476183
| 53>   C       3.570683     -8.663168      1.475031
| 54>   C       4.502827     -9.543151      2.044384
| 55>   N       2.208435     -8.972959      1.588062
| 56>   C       2.673413    -10.667152      3.237517
| 57>   C       1.776674     -9.757969      2.663105
| 58>   H       2.940615    -12.082312      4.821699
| 59>   C       2.260826    -11.386566      4.350613
| 60>   C       0.484701     -9.634191      3.174300
| 61>   C       0.982691    -11.256037      4.872337
| 62>   C       0.091958    -10.386858      4.267381
| 63>   H      -0.216213     -8.942352      2.729518
| 64>   H       0.687153    -11.836573      5.735758
| 65>   H      -0.913788    -10.277244      4.651237
| 66>   C       4.005425    -10.887278      2.546015
| 67>   C       5.019565    -11.583598      3.447707
| 68>   C       3.762981    -11.788645      1.316300
| 69>   C       1.249408     -8.194992      0.892093
| 70>   C       0.559946     -8.743374     -0.178354
| 71>   C      -0.382986     -7.972445     -0.825359
| 72>   C      -0.632373     -6.643653     -0.472726
| 73>   C       0.089314     -6.077001      0.578645
| 74>   C       0.988455     -6.893094      1.270657
| 75>   H       1.537431     -6.497711      2.115765
| 76>   H       0.751887     -9.764088     -0.481395
| 77>   H      -0.951479     -8.406358     -1.638928
| 78>   C      -1.727755     -5.925455     -1.205227
| 79>   C      -2.651221     -5.168896     -0.252024
| 80>   H      -2.308552     -6.660966     -1.764097
| 81>   H      -1.324303     -5.234223     -1.950930
| 82>   H      -2.761636     -5.735509      0.676636
| 83>   H      -3.650933     -5.094188     -0.682022
| 84>   H       3.061073    -11.334768      0.617112
| 85>   H       3.355225    -12.753087      1.624078
| 86>   H       4.700306    -11.963202      0.784653
| 87>   H       5.252519    -10.999715      4.338757
| 88>   H       5.947871    -11.775255      2.910409
| 89>   H       4.653569    -12.559727      3.764603
| 90> *
| 91>
| 92>
| 93>
| 94>                          ****END OF INPUT****

CARTESIAN COORDINATES (ANGSTROEM)
---------------------------------
  C      0.142403   -4.598251    1.002259
  C      0.085793   -4.470315    2.524124
  C      1.581829   -4.164320    0.733878
  C      2.238118   -4.109797   -0.479289
  H      1.731926   -4.372829   -1.399862
  C      3.571272   -3.716664   -0.497119
  H      4.101888   -3.660706   -1.438370
  C      4.230561   -3.395007    0.684971
  H      5.269447   -3.094754    0.652581
  C      3.572291   -3.461715    1.904249
  H      4.093994   -3.220792    2.821521
  C      2.239708   -3.847061    1.922249
  C     -0.978668   -4.731219    3.362960
  H     -1.927127   -5.077807    2.971301
  C     -0.812311   -4.543006    4.729490
  H     -1.634244   -4.744719    5.403194
  C      0.402188   -4.097744    5.240078
  H      0.514252   -3.957941    6.306862
  C      1.470786   -3.832668    4.396143
  H      2.413875   -3.487091    4.800177
  C      1.305932   -4.021283    3.032122
  C     -2.133788   -3.788509    0.008498
  C     -2.964879   -2.715557   -0.302053
  H     -3.966134   -2.913890   -0.661933
  C     -2.552169   -1.400809   -0.172006
  C     -3.444243   -0.338316   -0.500430
  N     -4.181359    0.503182   -0.771334
  C     -0.836042   -3.545182    0.467043
  C     -0.422238   -2.216672    0.583197
  H      0.574969   -1.990581    0.933786
  C     -1.250965   -1.151334    0.274501
  C     -0.766015    0.182533    0.419770
  N     -0.360300    1.252706    0.540955
  H      5.680917   -6.302366    0.281614
  H      7.339204   -7.784594    1.395921
  C      5.362921   -7.205615    0.785554
  C      6.285783   -8.029784    1.404403
  C      4.013939   -7.513512    0.820067
  H      3.318534   -6.841961    0.337096
  C      5.845731   -9.191544    2.020079
  H      6.577984   -9.843395    2.476183
  C      3.570683   -8.663168    1.475031
  C      4.502827   -9.543151    2.044384
  N      2.208435   -8.972959    1.588062
  C      2.673413  -10.667152    3.237517
  C      1.776674   -9.757969    2.663105
  H      2.940615  -12.082312    4.821699
  C      2.260826  -11.386566    4.350613
  C      0.484701   -9.634191    3.174300
  C      0.982691  -11.256037    4.872337
  C      0.091958  -10.386858    4.267381
  H     -0.216213   -8.942352    2.729518
  H      0.687153  -11.836573    5.735758
  H     -0.913788  -10.277244    4.651237
  C      4.005425  -10.887278    2.546015
  C      5.019565  -11.583598    3.447707
  C      3.762981  -11.788645    1.316300
  C      1.249408   -8.194992    0.892093
  C      0.559946   -8.743374   -0.178354
  C     -0.382986   -7.972445   -0.825359
  C     -0.632373   -6.643653   -0.472726
  C      0.089314   -6.077001    0.578645
  C      0.988455   -6.893094    1.270657
  H      1.537431   -6.497711    2.115765
  H      0.751887   -9.764088   -0.481395
  H     -0.951479   -8.406358   -1.638928
  C     -1.727755   -5.925455   -1.205227
  C     -2.651221   -5.168896   -0.252024
  H     -2.308552   -6.660966   -1.764097
  H     -1.324303   -5.234223   -1.950930
  H     -2.761636   -5.735509    0.676636
  H     -3.650933   -5.094188   -0.682022
  H      3.061073  -11.334768    0.617112
  H      3.355225  -12.753087    1.624078
  H      4.700306  -11.963202    0.784653
  H      5.252519  -10.999715    4.338757
  H      5.947871  -11.775255    2.910409
  H      4.653569  -12.559727    3.764603

 Total Charge           Charge          ....    0
 Multiplicity           Mult            ....    1
 Number of Electrons    NEL             ....  316
 Basis Dimension        Dim             ....  767

ORBITAL ENERGIES
----------------

  NO   OCC          E(Eh)            E(eV)
   0   2.0000     -14.679945      -399.4616
   1   2.0000     -14.657028      -398.8380
   2   2.0000     -14.654520      -398.7698
   3   2.0000     -10.522244      -286.3248
   4   2.0000     -10.520826      -286.2862
   5   2.0000     -10.512170      -286.0507
   6   2.0000     -10.507482      -285.9231
   7   2.0000     -10.500381      -285.7299
   8   2.0000     -10.500301      -285.7277
   9   2.0000     -10.497935      -285.6633
  10   2.0000     -10.497899      -285.6624
  11   2.0000     -10.493624      -285.5460
  12   2.0000     -10.491738      -285.4947
  13   2.0000     -10.491273      -285.4821
  14   2.0000     -10.491054      -285.4761
  15   2.0000     -10.487815      -285.3879
  16   2.0000     -10.480191      -285.1805
  17   2.0000     -10.477626      -285.1107
  18   2.0000     -10.477584      -285.1096
  19   2.0000     -10.474609      -285.0286
  20   2.0000     -10.474490      -285.0254
  21   2.0000     -10.473806      -285.0068
  22   2.0000     -10.469658      -284.8939
  23   2.0000     -10.469323      -284.8848
  24   2.0000     -10.468533      -284.8633
  25   2.0000     -10.468129      -284.8523
  26   2.0000     -10.467825      -284.8440
  27   2.0000     -10.466831      -284.8170
  28   2.0000     -10.466807      -284.8163
  29   2.0000     -10.465985      -284.7939
  30   2.0000     -10.465017      -284.7676
  31   2.0000     -10.465000      -284.7671
  32   2.0000     -10.464182      -284.7449
  33   2.0000     -10.463484      -284.7259
  34   2.0000     -10.463109      -284.7157
  35   2.0000     -10.451711      -284.4055
  36   2.0000     -10.451304      -284.3944
  37   2.0000     -10.444316      -284.2043
  38   2.0000     -10.444222      -284.2017
  39   2.0000     -10.443236      -284.1749
  40   2.0000     -10.442301      -284.1495
  41   2.0000     -10.442023      -284.1419
  42   2.0000     -10.439778      -284.0808
  43   2.0000     -10.437728      -284.0250
  44   2.0000     -10.436433      -283.9898
  45   2.0000     -10.430689      -283.8335
  46   2.0000     -10.426294      -283.7139
  47   2.0000      -1.091267       -29.6949
  48   2.0000      -1.042137       -28.3580
  49   2.0000      -1.029878       -28.0244
  50   2.0000      -1.019202       -27.7339
  51   2.0000      -1.003510       -27.3069
  52   2.0000      -0.987654       -26.8754
  53   2.0000      -0.968854       -26.3639
  54   2.0000      -0.960531       -26.1374
  55   2.0000      -0.957330       -26.0503
  56   2.0000      -0.938742       -25.5445
  57   2.0000      -0.933567       -25.4036
  58   2.0000      -0.910500       -24.7760
  59   2.0000      -0.898171       -24.4405
  60   2.0000      -0.890281       -24.2258
  61   2.0000      -0.884803       -24.0767
  62   2.0000      -0.857840       -23.3430
  63   2.0000      -0.856737       -23.3130
  64   2.0000      -0.848267       -23.0825
  65   2.0000      -0.845896       -23.0180
  66   2.0000      -0.833813       -22.6892
  67   2.0000      -0.825839       -22.4722
  68   2.0000      -0.818645       -22.2765
  69   2.0000      -0.808276       -21.9943
  70   2.0000      -0.795093       -21.6356
  71   2.0000      -0.772754       -21.0277
  72   2.0000      -0.771537       -20.9946
  73   2.0000      -0.747829       -20.3495
  74   2.0000      -0.731474       -19.9044
  75   2.0000      -0.724959       -19.7271
  76   2.0000      -0.713936       -19.4272
  77   2.0000      -0.710876       -19.3439
  78   2.0000      -0.702328       -19.1113
  79   2.0000      -0.691132       -18.8067
  80   2.0000      -0.682019       -18.5587
  81   2.0000      -0.678790       -18.4708
  82   2.0000      -0.672608       -18.3026
  83   2.0000      -0.671151       -18.2629
  84   2.0000      -0.666381       -18.1331
  85   2.0000      -0.645231       -17.5576
  86   2.0000      -0.618637       -16.8340
  87   2.0000      -0.612763       -16.6741
  88   2.0000      -0.611996       -16.6533
  89   2.0000      -0.610778       -16.6201
  90   2.0000      -0.598512       -16.2863
  91   2.0000      -0.583875       -15.8880
  92   2.0000      -0.582319       -15.8457
  93   2.0000      -0.572996       -15.5920
  94   2.0000      -0.566430       -15.4133
  95   2.0000      -0.561298       -15.2737
  96   2.0000      -0.539482       -14.6800
  97   2.0000      -0.539246       -14.6736
  98   2.0000      -0.537172       -14.6172
  99   2.0000      -0.532769       -14.4974
 100   2.0000      -0.529777       -14.4160
 101   2.0000      -0.527223       -14.3465
 102   2.0000      -0.523080       -14.2337
 103   2.0000      -0.520663       -14.1680
 104   2.0000      -0.516606       -14.0576
 105   2.0000      -0.509852       -13.8738
 106   2.0000      -0.507040       -13.7973
 107   2.0000      -0.503489       -13.7006
 108   2.0000      -0.501934       -13.6583
 109   2.0000      -0.500744       -13.6259
 110   2.0000      -0.497938       -13.5496
 111   2.0000      -0.493809       -13.4372
 112   2.0000      -0.491112       -13.3638
 113   2.0000      -0.489658       -13.3243
 114   2.0000      -0.486526       -13.2390
 115   2.0000      -0.484713       -13.1897
 116   2.0000      -0.474606       -12.9147
 117   2.0000      -0.469512       -12.7761
 118   2.0000      -0.460088       -12.5196
 119   2.0000      -0.451177       -12.2772
 120   2.0000      -0.447966       -12.1898
 121   2.0000      -0.444002       -12.0819
 122   2.0000      -0.440335       -11.9821
 123   2.0000      -0.438672       -11.9369
 124   2.0000      -0.437239       -11.8979
 125   2.0000      -0.435983       -11.8637
 126   2.0000      -0.435409       -11.8481
 127   2.0000      -0.430689       -11.7196
 128   2.0000      -0.427570       -11.6348
 129   2.0000      -0.425382       -11.5752
 130   2.0000      -0.424189       -11.5428
 131   2.0000      -0.420500       -11.4424
 132   2.0000      -0.420347       -11.4382
 133   2.0000      -0.416327       -11.3288
 134   2.0000      -0.415240       -11.2992
 135   2.0000      -0.413468       -11.2510
 136   2.0000      -0.411887       -11.2080
 137   2.0000      -0.402955       -10.9650
 138   2.0000      -0.400701       -10.9036
 139   2.0000      -0.399107       -10.8602
 140   2.0000      -0.397324       -10.8117
 141   2.0000      -0.395465       -10.7611
 142   2.0000      -0.392555       -10.6820
 143   2.0000      -0.378102       -10.2887
 144   2.0000      -0.373529       -10.1642
 145   2.0000      -0.363994        -9.9048
 146   2.0000      -0.349426        -9.5084
 147   2.0000      -0.339283        -9.2324
 148   2.0000      -0.321891        -8.7591
 149   2.0000      -0.313978        -8.5438
 150   2.0000      -0.305843        -8.3224
 151   2.0000      -0.303474        -8.2579
 152   2.0000      -0.299131        -8.1398
 153   2.0000      -0.290880        -7.9152
 154   2.0000      -0.286928        -7.8077
 155   2.0000      -0.280744        -7.6394
 156   2.0000      -0.270870        -7.3707
 157   2.0000      -0.230253        -6.2655
 158   0.0000      -0.062781        -1.7084
 159   0.0000      -0.041272        -1.1231
 160   0.0000      -0.029498        -0.8027
 161   0.0000      -0.016874        -0.4592
 162   0.0000      -0.009886        -0.2690

MULLIKEN ATOMIC CHARGES
-----------------------
   0 C :   -0.444299
   1 C :    0.142563
   2 C :    0.066971
   3 C :   -0.261309
   4 H :    0.223767
   5 C :   -0.237158
   6 H :    0.230261
   7 C :   -0.213203
   8 H :    0.230014
   9 C :   -0.320576
  10 H :    0.214611
  11 C :    0.155164
  12 C :   -0.275659
  13 H :    0.215825
  14 C :   -0.222222
  15 H :    0.227605
  16 C :   -0.213307
  17 H :    0.229625
  18 C :   -0.321099
  19 H :    0.214432
  20 C :    0.142447
  21 C :    0.098308
  22 C :   -0.320418
  23 H :    0.245953
  24 C :    0.078369
  25 C :   -0.007129
  26 N :   -0.154054
  27 C :    0.223177
  28 C :   -0.290711
  29 H :    0.281481
  30 C :    0.087668
  31 C :   -0.008361
  32 N :   -0.154616
  33 H :    0.213509
  34 H :    0.209791
  35 C :   -0.231871
  36 C :   -0.219444
  37 C :   -0.297064
  38 H :    0.262299
  39 C :   -0.322947
  40 H :    0.212464
  41 C :    0.313849
  42 C :    0.157387
  43 N :   -0.706887
  44 C :    0.170312
  45 C :    0.311546
  46 H :    0.212125
  47 C :   -0.325066
  48 C :   -0.283204
  49 C :   -0.217480
  50 C :   -0.234202
  51 H :    0.240452
  52 H :    0.211624
  53 H :    0.213584
  54 C :   -0.231224
  55 C :   -0.663937
  56 C :   -0.592645
  57 C :    0.213539
  58 C :   -0.233002
  59 C :   -0.299497
  60 C :    0.063272
  61 C :    0.221731
  62 C :   -0.284055
  63 H :    0.282169
  64 H :    0.234007
  65 H :    0.218203
  66 C :   -0.519339
  67 C :   -0.536576
  68 H :    0.248444
  69 H :    0.250851
  70 H :    0.255772
  71 H :    0.251259
  72 H :    0.231732
  73 H :    0.219656
  74 H :    0.220381
  75 H :    0.239096
  76 H :    0.227630
  77 H :    0.227634
Sum of atomic charges:    0.0000000

LOEWDIN ATOMIC CHARGES
----------------------
   0 C :   -0.028678
   1 C :   -0.012462
   2 C :   -0.021457
   3 C :   -0.120250
   4 H :    0.143686
   5 C :   -0.129350
   6 H :    0.141183
   7 C :   -0.126062
   8 H :    0.140942
   9 C :   -0.117715
  10 H :    0.141816
  11 C :   -0.037310
  12 C :   -0.118716
  13 H :    0.138651
  14 C :   -0.124019
  15 H :    0.140560
  16 C :   -0.122847
  17 H :    0.141252
  18 C :   -0.119695
  19 H :    0.141131
  20 C :   -0.036074
  21 C :   -0.026881
  22 C :   -0.092841
  23 H :    0.154917
  24 C :   -0.063587
  25 C :   -0.006391
  26 N :   -0.054118
  27 C :    0.003533
  28 C :   -0.068071
  29 H :    0.171193
  30 C :   -0.065221
  31 C :   -0.005384
  32 N :   -0.054514
  33 H :    0.134552
  34 H :    0.132970
  35 C :   -0.126853
  36 C :   -0.158300
  37 C :   -0.163082
  38 H :    0.150518
  39 C :   -0.128212
  40 H :    0.136088
  41 C :    0.048211
  42 C :   -0.044642
  43 N :   -0.078024
  44 C :   -0.044037
  45 C :    0.047180
  46 H :    0.136170
  47 C :   -0.127547
  48 C :   -0.162970
  49 C :   -0.156479
  50 C :   -0.128818
  51 H :    0.146447
  52 H :    0.133746
  53 H :    0.134357
  54 C :   -0.071477
  55 C :   -0.339923
  56 C :   -0.328120
  57 C :    0.010160
  58 C :   -0.115749
  59 C :   -0.130929
  60 C :   -0.048082
  61 C :   -0.022314
  62 C :   -0.104137
  63 H :    0.163640
  64 H :    0.148564
  65 H :    0.138043
  66 C :   -0.217601
  67 C :   -0.218414
  68 H :    0.139106
  69 H :    0.142625
  70 H :    0.143720
  71 H :    0.138628
  72 H :    0.130815
  73 H :    0.128778
  74 H :    0.129272
  75 H :    0.135895
  76 H :    0.129593
  77 H :    0.129410

  Mayer bond orders larger than 0.1
B(  0-C ,  1-C ) :   0.9577 B(  0-C ,  2-C ) :   0.9704 B(  0-C , 27-C ) :   0.9580
B(  0-C , 61-C ) :   0.9454 B(  1-C , 12-C ) :   1.3959 B(  1-C , 20-C ) :   1.3467
B(  2-C ,  3-C ) :   1.4033 B(  2-C , 11-C ) :   1.3424 B(  3-C ,  4-H ) :   0.9229
B(  3-C ,  5-C ) :   1.4181 B(  5-C ,  6-H ) :   0.9158 B(  5-C ,  7-C ) :   1.4127
B(  7-C ,  8-H ) :   0.9164 B(  7-C ,  9-C ) :   1.4296 B(  9-C , 10-H ) :   0.9302
B(  9-C , 11-C ) :   1.3357 B( 11-C , 20-C ) :   1.0038 B( 12-C , 13-H ) :   0.9232
B( 12-C , 14-C ) :   1.4197 B( 14-C , 15-H ) :   0.9166 B( 14-C , 16-C ) :   1.4171
B( 16-C , 17-H ) :   0.9165 B( 16-C , 18-C ) :   1.4298 B( 18-C , 19-H ) :   0.9299
B( 18-C , 20-C ) :   1.3385 B( 21-C , 22-C ) :   1.3865 B( 21-C , 27-C ) :   1.3731
B( 21-C , 67-C ) :   0.9457 B( 22-C , 23-H ) :   0.9121 B( 22-C , 24-C ) :   1.3776
B( 24-C , 25-C ) :   0.9867 B( 24-C , 30-C ) :   1.2991 B( 25-C , 26-N ) :   3.1392
B( 27-C , 28-C ) :   1.3452 B( 28-C , 29-H ) :   0.8961 B( 28-C , 30-C ) :   1.3792
B( 30-C , 31-C ) :   0.9893 B( 31-C , 32-N ) :   3.1403 B( 33-H , 35-C ) :   0.9176
B( 34-H , 36-C ) :   0.9213 B( 35-C , 36-C ) :   1.4281 B( 35-C , 37-C ) :   1.4491
B( 36-C , 39-C ) :   1.4161 B( 37-C , 38-H ) :   0.8906 B( 37-C , 41-C ) :   1.3516
B( 39-C , 40-H ) :   0.9177 B( 39-C , 42-C ) :   1.4242 B( 41-C , 42-C ) :   1.3175
B( 41-C , 43-N ) :   0.9933 B( 42-C , 54-C ) :   0.9361 B( 43-N , 45-C ) :   0.9940
B( 43-N , 57-C ) :   0.9223 B( 44-C , 45-C ) :   1.3183 B( 44-C , 47-C ) :   1.4204
B( 44-C , 54-C ) :   0.9336 B( 45-C , 48-C ) :   1.3568 B( 46-H , 47-C ) :   0.9181
B( 47-C , 49-C ) :   1.4170 B( 48-C , 50-C ) :   1.4399 B( 48-C , 51-H ) :   0.9015
B( 49-C , 50-C ) :   1.4298 B( 49-C , 52-H ) :   0.9208 B( 50-C , 53-H ) :   0.9206
B( 54-C , 55-C ) :   1.0251 B( 54-C , 56-C ) :   0.9841 B( 55-C , 75-H ) :   0.9214
B( 55-C , 76-H ) :   0.9136 B( 55-C , 77-H ) :   0.9135 B( 56-C , 72-H ) :   0.9177
B( 56-C , 73-H ) :   0.9225 B( 56-C , 74-H ) :   0.9223 B( 57-C , 58-C ) :   1.4061
B( 57-C , 62-C ) :   1.4441 B( 58-C , 59-C ) :   1.4243 B( 58-C , 64-H ) :   0.9123
B( 59-C , 60-C ) :   1.3837 B( 59-C , 65-H ) :   0.9169 B( 60-C , 61-C ) :   1.4043
B( 60-C , 66-C ) :   0.9442 B( 61-C , 62-C ) :   1.3136 B( 62-C , 63-H ) :   0.8874
B( 66-C , 67-C ) :   0.9409 B( 66-C , 68-H ) :   0.9213 B( 66-C , 69-H ) :   0.9034
B( 67-C , 70-H ) :   0.8993 B( 67-C , 71-H ) :   0.9193

-----------------------------------------------------------------------------
         ABSORPTION SPECTRUM VIA TRANSITION ELECTRIC DIPOLE MOMENTS
-----------------------------------------------------------------------------
State   Energy  Wavelength   fosc         T2         TX        TY        TZ
        (cm-1)    (nm)                  (au**2)     (au)      (au)      (au)
-----------------------------------------------------------------------------
   1   31179.8    320.7   0.001251037   0.01321  -0.05058   0.09874  -0.03001
   2   33942.8    294.6   0.001747131   0.01695   0.00555   0.12900  -0.01652
   3   35478.6    281.9   0.004358422   0.04044  -0.08145   0.13571  -0.12406
   4   35666.1    280.4   0.068458016   0.63189  -0.59081   0.41806  -0.32874
   5   35902.1    278.5   0.003641023   0.03339  -0.02727   0.17150  -0.05685
   6   37881.3    264.0   0.002519643   0.02190   0.05874   0.08259  -0.10782
   7   38444.5    260.1   0.107883434   0.92384  -0.67417   0.12029   0.67444
   8   39525.8    253.0   0.032635346   0.27182  -0.37560   0.35954  -0.03844
   9   27125.4    368.7   spin forbidden (mult=3)
  10   27886.0    358.6   spin forbidden (mult=3)
  11   30302.0    330.0   spin forbidden (mult=3)
  12   31122.9    321.3   spin forbidden (mult=3)
  13   31300.0    319.5   spin forbidden (mult=3)
  14   32486.3    307.8   spin forbidden (mult=3)
  15   32735.0    305.5   spin forbidden (mult=3)
  16   33190.6    301.3   spin forbidden (mult=3)

Dispersion correction           -0.078567884
FINAL SINGLE POINT ENERGY     -1855.533459271926

DIPOLE MOMENT
-------------
                                X             Y             Z
Electronic contribution:    -19.12711      38.68874      -6.90213
Nuclear contribution   :     19.67767     -41.56698       7.10046
                        -----------------------------------------
Total Dipole Moment    :      0.55057      -2.87824       0.19833
                        -----------------------------------------
Magnitude (a.u.)       :      2.93713
Magnitude (Debye)      :      7.46558

                             ****ORCA TERMINATED NORMALLY****
TOTAL RUN TIME: 0 days 0 hours 43 minutes 37 seconds 853 msec
