 Q-Chem 5.1, Q-Chem, Inc., Pleasanton, CA (2018)
 Q-Chem 5.1.1 for Intel X86 EM64T Linux

User input:
--------------------------------------------------------------
$rem
threads 4
jobtype opt
method PBEh-3c
basis def2-mSVP
mem_static      1024
mem_total       4000
sym_ignore      true
unrestricted true
scf_algorithm	diis
scf_max_cycles	250
solvent_method  pcm
geom_opt_tol_energy 25
geom_opt_tol_gradient 75
$end

$pcm
theory  iefpcm
$end

$solvent
dielectric      1.0001
$end

$molecule
read ACR_kat.mol
$end
--------------------------------------------------------------

   18    -633.7448712436      9.06e-09  Convergence criterion met
 Total energy in the final basis set =     -633.7448712436
   15    -633.7588124372      4.67e-09  Convergence criterion met
 Total energy in the final basis set =     -633.7588124372
   13    -633.7591279154      9.72e-09  Convergence criterion met
 Total energy in the final basis set =     -633.7591279154
   11    -633.7591347116      7.08e-09  Convergence criterion met
 Total energy in the final basis set =     -633.7591347116

             Standard Nuclear Orientation (Angstroms)
    I     Atom           X                Y                Z
 ----------------------------------------------------------------
    1      H      -7.8207884795    -7.7542687982    -8.1095065664
    2      N      -8.4683540920    -8.1276631486    -8.7935171620
    3      C      -9.7945747282    -7.9314966245    -8.5684215875
    4      C     -10.7284898092    -8.4332379258    -9.4937616530
    5      C     -10.3054197382    -9.1821782113   -10.7391177955
    6      C     -12.0672415528    -8.2070966720    -9.2157434873
    7      H     -12.8260065724    -8.5724752689    -9.8945502028
    8      C     -12.4680508862    -7.5176834031    -8.0810601618
    9      H     -13.5220426174    -7.3600224036    -7.8980618485
   10      C     -11.5245140872    -7.0267328975    -7.1755153877
   11      H     -11.8429146855    -6.4900906278    -6.2932698310
   12      C     -10.1904214364    -7.2314402128    -7.4144463548
   13      H      -9.4446200092    -6.8586440116    -6.7225627843
   14      C      -7.9391071476    -8.7842602090    -9.8601899541
   15      C      -8.8011992148    -9.3173273001   -10.8359247630
   16      C      -8.2075590019    -9.9740590646   -11.9021828726
   17      H      -8.8252987571   -10.4017666123   -12.6804975666
   18      C      -6.8297942463   -10.1000351950   -12.0026403195
   19      H      -6.4026132839   -10.6188307886   -12.8496787072
   20      C      -5.9918468375    -9.5636341443   -11.0222300093
   21      H      -4.9192102808    -9.6645195812   -11.1054165207
   22      C      -6.5413322814    -8.9064233585    -9.9523763542
   23      H      -5.9077260169    -8.4826145719    -9.1822694500
   24      C     -10.8150654221    -8.4133934883   -11.9768872889
   25      C     -10.9324376002   -10.5915271947   -10.7099778260
   26      H     -10.3882851703    -7.4127127010   -12.0323142493
   27      H     -11.8999869855    -8.3176967088   -11.9544774979
   28      H     -10.5581472346    -8.9419127832   -12.8939993341
   29      H     -10.5946701121   -11.1632561879    -9.8466151478
   30      H     -10.6744853211   -11.1517263160   -11.6079639455
   31      H     -12.0192963917   -10.5313735889   -10.6717233705
 ----------------------------------------------------------------

    9    -633.7591348735      8.55e-09  Convergence criterion met
 Total energy in the final basis set =     -633.7591348735
 Final energy is   -633.759134873478
 **  OPTIMIZATION CONVERGED  **

                    Orbital Energies (a.u.)
 --------------------------------------------------------------

 Alpha MOs
 -- Occupied --
-14.900 -10.666 -10.666 -10.625 -10.625 -10.623 -10.613 -10.613
-10.605 -10.605 -10.598 -10.598 -10.598 -10.598 -10.563 -10.563
 -1.286  -1.128  -1.121  -1.068  -1.021  -1.001  -0.978  -0.966
 -0.907  -0.890  -0.882  -0.836  -0.832  -0.780  -0.776  -0.773
 -0.700  -0.692  -0.690  -0.685  -0.680  -0.651  -0.646  -0.639
 -0.627  -0.617  -0.600  -0.590  -0.578  -0.576  -0.567  -0.563
 -0.551  -0.533  -0.532  -0.520  -0.461  -0.452  -0.444  -0.406

 Beta MOs
 -- Occupied --
-14.889 -10.667 -10.667 -10.623 -10.622 -10.622 -10.611 -10.611
-10.601 -10.601 -10.600 -10.600 -10.600 -10.600 -10.563 -10.562
 -1.269  -1.124  -1.114  -1.065  -1.018  -0.998  -0.975  -0.957
 -0.904  -0.888  -0.876  -0.833  -0.830  -0.778  -0.773  -0.769
 -0.696  -0.689  -0.684  -0.679  -0.658  -0.650  -0.645  -0.638
 -0.627  -0.602  -0.592  -0.589  -0.576  -0.575  -0.562  -0.561
 -0.537  -0.530  -0.520  -0.518  -0.447  -0.438  -0.434

          Ground-State Mulliken Net Atomic Charges

     Atom                 Charge (a.u.)    Spin (a.u.)
  --------------------------------------------------------
      1 H                     0.410129      -0.018527
      2 N                    -0.710873       0.395761
      3 C                     0.343881      -0.069742
      4 C                     0.191204       0.229521
      5 C                    -0.252663      -0.038183
      6 C                    -0.294287      -0.153712
      7 H                     0.257239       0.007156
      8 C                    -0.184757       0.267646
      9 H                     0.278524      -0.014237
     10 C                    -0.227851      -0.126675
     11 H                     0.278375       0.005605
     12 C                    -0.279445       0.171785
     13 H                     0.264538      -0.009679
     14 C                     0.344569      -0.069644
     15 C                     0.191726       0.228526
     16 C                    -0.294582      -0.153205
     17 H                     0.257272       0.007136
     18 C                    -0.184888       0.267016
     19 H                     0.278488      -0.014207
     20 C                    -0.227884      -0.126527
     21 H                     0.278324       0.005600
     22 C                    -0.279932       0.171522
     23 H                     0.264431      -0.009666
     24 C                    -0.596284       0.024034
     25 C                    -0.597189       0.023543
     26 H                     0.251005      -0.000866
     27 H                     0.247450       0.000224
     28 H                     0.247402       0.000242
     29 H                     0.251443      -0.000827
     30 H                     0.247421       0.000194
     31 H                     0.247216       0.000188
  --------------------------------------------------------
  Sum of atomic charges =     1.000000

                    Cartesian Multipole Moments
 -----------------------------------------------------------------
    Charge (ESU x 10^10)
                 4.8032
    Dipole Moment (Debye)
         X     -44.1708      Y     -41.0369      Z     -45.9356
       Tot      75.7969
    Quadrupole Moments (Debye-Ang)
        XX     351.7161     XY     371.7449     YY     264.7263
        XZ     416.2901     YZ     409.5457     ZZ     371.5863

 Total job time:  782.81s(wall), 2855.34s(cpu)
        *  Thank you very much for using Q-Chem.  Have a nice day.  *
