 Q-Chem 5.1, Q-Chem, Inc., Pleasanton, CA (2018)
 Q-Chem 5.1.1 for Intel X86 EM64T Linux

User input:
--------------------------------------------------------------
$rem
threads 4
jobtype opt
method PBEh-3c
basis def2-mSVP
mem_static      1024
mem_total       4000
sym_ignore      true
unrestricted true
scf_algorithm	diis
scf_max_cycles	250
solvent_method  pcm
geom_opt_tol_energy 25
geom_opt_tol_gradient 75
$end

$pcm
theory  iefpcm
$end

$solvent
dielectric      2.38
$end

$molecule
read ACR_kat.mol
$end
--------------------------------------------------------------

   18    -633.7887443369      4.93e-09  Convergence criterion met
 Total energy in the final basis set =     -633.7887443369
   15    -633.8026328468      8.70e-09  Convergence criterion met
 Total energy in the final basis set =     -633.8026328468
   14    -633.8029604441      9.54e-09  Convergence criterion met
 Total energy in the final basis set =     -633.8029604441
   14    -633.8029705127      6.98e-09  Convergence criterion met
 Total energy in the final basis set =     -633.8029705127
   14    -633.8029735182      7.40e-09  Convergence criterion met
 Total energy in the final basis set =     -633.8029735182
   14    -633.8029761769      7.62e-09  Convergence criterion met
 Total energy in the final basis set =     -633.8029761769
   14    -633.8029800988      7.74e-09  Convergence criterion met
 Total energy in the final basis set =     -633.8029800988

             Standard Nuclear Orientation (Angstroms)
    I     Atom           X                Y                Z
 ----------------------------------------------------------------
    1      H      -7.8228845001    -7.7804605918    -8.0901113141
    2      N      -8.4687408460    -8.1433997166    -8.7830053952
    3      C      -9.7942180032    -7.9404894013    -8.5652810590
    4      C     -10.7278639872    -8.4222314430    -9.5010230103
    5      C     -10.3049090383    -9.1780684273   -10.7414612658
    6      C     -12.0661624640    -8.1804883518    -9.2325135175
    7      H     -12.8246392582    -8.5280233102    -9.9210763147
    8      C     -12.4664671258    -7.4971656665    -8.0937895115
    9      H     -13.5197891528    -7.3266868598    -7.9181351881
   10      C     -11.5237863800    -7.0300413162    -7.1750980320
   11      H     -11.8417904392    -6.4996329964    -6.2888407404
   12      C     -10.1900820431    -7.2492049617    -7.4061088925
   13      H      -9.4428184833    -6.8954935472    -6.7064761542
   14      C      -7.9401672820    -8.7868564442    -9.8567829023
   15      C      -8.8008873148    -9.3066912763   -10.8406237779
   16      C      -8.2083655913    -9.9557421646   -11.9122616647
   17      H      -8.8274426321   -10.3757230614   -12.6935709717
   18      C      -6.8307873170   -10.0841354808   -12.0118899976
   19      H      -6.4038800262   -10.5963167032   -12.8631690391
   20      C      -5.9933426539    -9.5591450912   -11.0249667199
   21      H      -4.9207943791    -9.6620424890   -11.1077758659
   22      C      -6.5421886470    -8.9115456788    -9.9481687984
   23      H      -5.9109940051    -8.4979624587    -9.1708654375
   24      C     -10.8289422044    -8.4328180573   -11.9863543310
   25      C     -10.9190243399   -10.5928113757   -10.6900684328
   26      H     -10.4115858437    -7.4289884009   -12.0550236019
   27      H     -11.9147934741    -8.3502394225   -11.9573184075
   28      H     -10.5714891991    -8.9717838115   -12.8973860333
   29      H     -10.5716025428   -11.1460712903    -9.8183875255
   30      H     -10.6548972624   -11.1613022673   -11.5813140942
   31      H     -12.0061635637   -10.5385379365   -10.6480520034
 ----------------------------------------------------------------

   14    -633.8029811300      7.53e-09  Convergence criterion met
 Total energy in the final basis set =     -633.8029811300
 Final energy is   -633.802981130043
 **  OPTIMIZATION CONVERGED  **

                    Orbital Energies (a.u.)
 --------------------------------------------------------------

 Alpha MOs
 -- Occupied --
-14.822 -10.590 -10.590 -10.551 -10.551 -10.548 -10.538 -10.538
-10.531 -10.531 -10.523 -10.523 -10.523 -10.523 -10.490 -10.490
 -1.208  -1.053  -1.046  -0.994  -0.946  -0.926  -0.903  -0.891
 -0.834  -0.814  -0.806  -0.761  -0.757  -0.705  -0.701  -0.696
 -0.624  -0.617  -0.613  -0.610  -0.605  -0.576  -0.570  -0.564
 -0.554  -0.543  -0.526  -0.515  -0.503  -0.502  -0.494  -0.487
 -0.478  -0.460  -0.457  -0.446  -0.387  -0.378  -0.370  -0.331

 Beta MOs
 -- Occupied --
-14.811 -10.591 -10.591 -10.549 -10.547 -10.547 -10.535 -10.535
-10.527 -10.527 -10.525 -10.525 -10.525 -10.525 -10.490 -10.489
 -1.191  -1.049  -1.039  -0.991  -0.942  -0.923  -0.900  -0.882
 -0.831  -0.812  -0.800  -0.758  -0.755  -0.703  -0.698  -0.692
 -0.621  -0.614  -0.609  -0.603  -0.581  -0.575  -0.569  -0.563
 -0.553  -0.528  -0.518  -0.515  -0.501  -0.501  -0.488  -0.486
 -0.464  -0.456  -0.446  -0.444  -0.373  -0.364  -0.360

          Ground-State Mulliken Net Atomic Charges

     Atom                 Charge (a.u.)    Spin (a.u.)
  --------------------------------------------------------
      1 H                     0.431448      -0.018501
      2 N                    -0.704482       0.407484
      3 C                     0.341940      -0.078923
      4 C                     0.186789       0.232763
      5 C                    -0.241291      -0.038893
      6 C                    -0.302276      -0.155057
      7 H                     0.266579       0.007202
      8 C                    -0.194781       0.266924
      9 H                     0.280746      -0.014228
     10 C                    -0.238846      -0.130921
     11 H                     0.280272       0.005831
     12 C                    -0.284740       0.178359
     13 H                     0.279107      -0.009889
     14 C                     0.342124      -0.078871
     15 C                     0.187029       0.232260
     16 C                    -0.302222      -0.154798
     17 H                     0.266756       0.007194
     18 C                    -0.194980       0.266574
     19 H                     0.280636      -0.014209
     20 C                    -0.238801      -0.130714
     21 H                     0.280266       0.005821
     22 C                    -0.284610       0.178076
     23 H                     0.279017      -0.009875
     24 C                    -0.607019       0.022963
     25 C                    -0.604709       0.024248
     26 H                     0.250686      -0.000795
     27 H                     0.248778       0.000148
     28 H                     0.248776       0.000152
     29 H                     0.249500      -0.000896
     30 H                     0.249054       0.000288
     31 H                     0.249252       0.000281
  --------------------------------------------------------
  Sum of atomic charges =     1.000000

                    Cartesian Multipole Moments
 -----------------------------------------------------------------
    Charge (ESU x 10^10)
                 4.8032
    Dipole Moment (Debye)
         X     -43.8861      Y     -40.9041      Z     -45.6097
       Tot      75.3617
    Quadrupole Moments (Debye-Ang)
        XX     345.4900     XY     368.5725     YY     261.8023
        XZ     411.8145     YZ     405.2641     ZZ     365.2163

 Total job time:  1410.88s(wall), 5158.85s(cpu)
        *  Thank you very much for using Q-Chem.  Have a nice day.  *
