 Q-Chem 5.1, Q-Chem, Inc., Pleasanton, CA (2018)
 Q-Chem 5.1.1 for Intel X86 EM64T Linux

User input:
--------------------------------------------------------------
$molecule
read ACR.mol
$end

$rem
threads 4
jobtype	opt
method PBEh-3c
basis def2-mSVP
mem_static	512
mem_total	3000
sym_ignore	true
$end

--------------------------------------------------------------

   14    -634.0008596220      4.28e-09  Convergence criterion met
 Total energy in the final basis set =     -634.0008596220
   12    -634.0103620720      4.22e-09  Convergence criterion met
 Total energy in the final basis set =     -634.0103620720
   10    -634.0105717461      7.61e-09  Convergence criterion met
 Total energy in the final basis set =     -634.0105717461

             Standard Nuclear Orientation (Angstroms)
    I     Atom           X                Y                Z
 ----------------------------------------------------------------
    1      H      -7.7977526395    -7.7347474853    -8.0899673704
    2      N      -8.4398095861    -8.1053445431    -8.7673623993
    3      C      -9.7850224114    -7.9217043347    -8.5565012014
    4      C     -10.7137933794    -8.4213501749    -9.4725863436
    5      C     -10.2952354937    -9.1745674654   -10.7294052602
    6      C     -12.0618605622    -8.2067904469    -9.2076926032
    7      H     -12.8008711505    -8.5852592565    -9.9035832377
    8      C     -12.5000072743    -7.5248834771    -8.0859681602
    9      H     -13.5578877416    -7.3782961659    -7.9164173215
   10      C     -11.5634399521    -7.0352077562    -7.1878986072
   11      H     -11.8803639570    -6.4986596827    -6.3032967239
   12      C     -10.2173134433    -7.2325407307    -7.4209148142
   13      H      -9.4858135165    -6.8501910316    -6.7179538442
   14      C      -7.9259034588    -8.7757724695    -9.8513739454
   15      C      -8.7802097801    -9.3082526299   -10.8197392141
   16      C      -8.2016308257    -9.9744073795   -11.8944753083
   17      H      -8.8432260343   -10.3961042689   -12.6589977224
   18      C      -6.8317133173   -10.1210485167   -12.0279757734
   19      H      -6.4207789883   -10.6456528551   -12.8795371132
   20      C      -5.9993458437    -9.5859198308   -11.0562891939
   21      H      -4.9250994680    -9.6869685791   -11.1372071895
   22      C      -6.5423795416    -8.9188217782    -9.9770744122
   23      H      -5.8923039235    -8.4996226605    -9.2172454131
   24      C     -10.8043548338    -8.4097796859   -11.9633164101
   25      C     -10.9227578430   -10.5782209370   -10.7047404171
   26      H     -10.3711852644    -7.4109150777   -12.0100301406
   27      H     -11.8900126540    -8.3041484279   -11.9437111345
   28      H     -10.5462929381    -8.9310010132   -12.8861735730
   29      H     -10.5796529624   -11.1439220543    -9.8389647116
   30      H     -10.6641884801   -11.1456006259   -11.5998757545
   31      H     -12.0112927355   -10.5243986588   -10.6606246860
 ----------------------------------------------------------------

    9    -634.0105719532      4.86e-09  Convergence criterion met
 Total energy in the final basis set =     -634.0105719532
 Final energy is   -634.010571953225
 **  OPTIMIZATION CONVERGED  **

                    Orbital Energies (a.u.)
 --------------------------------------------------------------

 Alpha MOs
 -- Occupied --
-14.667 -10.491 -10.491 -10.468 -10.449 -10.448 -10.444 -10.444
-10.443 -10.443 -10.443 -10.443 -10.435 -10.435 -10.424 -10.424
 -1.075  -0.958  -0.952  -0.908  -0.850  -0.835  -0.816  -0.801
 -0.767  -0.723  -0.706  -0.674  -0.670  -0.616  -0.612  -0.601
 -0.536  -0.535  -0.523  -0.521  -0.498  -0.493  -0.485  -0.479
 -0.479  -0.455  -0.449  -0.438  -0.427  -0.424  -0.415  -0.405
 -0.395  -0.375  -0.372  -0.367  -0.294  -0.287  -0.283  -0.221

          Ground-State Mulliken Net Atomic Charges

     Atom                 Charge (a.u.)
  ----------------------------------------
      1 H                     0.352615
      2 N                    -0.816349
      3 C                     0.357486
      4 C                     0.133936
      5 C                    -0.208769
      6 C                    -0.292488
      7 H                     0.207870
      8 C                    -0.228256
      9 H                     0.212574
     10 C                    -0.231215
     11 H                     0.216462
     12 C                    -0.316810
     13 H                     0.206923
     14 C                     0.358233
     15 C                     0.134546
     16 C                    -0.293038
     17 H                     0.207957
     18 C                    -0.228218
     19 H                     0.212602
     20 C                    -0.231255
     21 H                     0.216482
     22 C                    -0.317121
     23 H                     0.206887
     24 C                    -0.596044
     25 C                    -0.597491
     26 H                     0.234834
     27 H                     0.215701
     28 H                     0.215465
     29 H                     0.235213
     30 H                     0.215641
     31 H                     0.215626
  ----------------------------------------
  Sum of atomic charges =     0.000000

                    Cartesian Multipole Moments
 -----------------------------------------------------------------
    Charge (ESU x 10^10)
                 0.0000
    Dipole Moment (Debye)
         X       0.5418      Y       0.3173      Z       0.5631
       Tot       0.8434
    Quadrupole Moments (Debye-Ang)
        XX     -95.4122     XY      -6.2373     YY    -102.6779
        XZ      -6.8499     YZ      -0.1931     ZZ     -99.2661

 Total job time:  262.96s(wall), 1051.58s(cpu)
        *  Thank you very much for using Q-Chem.  Have a nice day.  *
