 Q-Chem 5.1, Q-Chem, Inc., Pleasanton, CA (2018)
 Q-Chem 5.1.1 for Intel X86 EM64T Linux

User input:
--------------------------------------------------------------
$rem
threads 4
jobtype	opt
method PBEh-3c
basis def2-mSVP
mem_static	1024
mem_total	3000
sym_ignore	true
scf_convergence	9
solvent_method	pcm
$end

$molecule
read ACR.mol
$end

$solvent
dielectric	2.38
$end

$pcm
theory iefpcm
$end

--------------------------------------------------------------

   16    -634.0072133996      6.22e-10  Convergence criterion met
 Total energy in the final basis set =     -634.0072133996
   14    -634.0164075496      5.33e-10  Convergence criterion met
 Total energy in the final basis set =     -634.0164075496
   13    -634.0166160295      6.75e-10  Convergence criterion met
 Total energy in the final basis set =     -634.0166160295

             Standard Nuclear Orientation (Angstroms)
    I     Atom           X                Y                Z
 ----------------------------------------------------------------
    1      H      -7.7964111740    -7.7351385468    -8.0862089348
    2      N      -8.4386476000    -8.1060687892    -8.7650598810
    3      C      -9.7837671209    -7.9223757892    -8.5560570506
    4      C     -10.7134098278    -8.4204344291    -9.4732984213
    5      C     -10.2954564148    -9.1745057356   -10.7299355644
    6      C     -12.0621546645    -8.2045182518    -9.2097368290
    7      H     -12.8012085196    -8.5812107833    -9.9067674710
    8      C     -12.5005078343    -7.5227315519    -8.0870813453
    9      H     -13.5585976005    -7.3748669493    -7.9183081193
   10      C     -11.5632780682    -7.0349470864    -7.1872280408
   11      H     -11.8801861674    -6.4988844228    -6.3020332672
   12      C     -10.2165224340    -7.2335519936    -7.4191841906
   13      H      -9.4840625953    -6.8534755731    -6.7161303336
   14      C      -7.9258968497    -8.7753407452    -9.8499240089
   15      C      -8.7801883575    -9.3069313755   -10.8200221620
   16      C      -8.2018983535    -9.9726323265   -11.8959699831
   17      H      -8.8435371421   -10.3935244047   -12.6610187695
   18      C      -6.8312669422   -10.1198014783   -12.0292736219
   19      H      -6.4203928373   -10.6439829207   -12.8814521389
   20      C      -5.9984976832    -9.5857147657   -11.0560680995
   21      H      -4.9240427670    -9.6872706631   -11.1366593209
   22      C      -6.5413625684    -8.9190845316    -9.9756441070
   23      H      -5.8922793459    -8.5007868342    -9.2145976597
   24      C     -10.8067691718    -8.4121965813   -11.9647275061
   25      C     -10.9220193779   -10.5787817949   -10.7039438962
   26      H     -10.3750599528    -7.4124998703   -12.0138871218
   27      H     -11.8926965285    -8.3089505932   -11.9431669121
   28      H     -10.5492903320    -8.9357136851   -12.8865303233
   29      H     -10.5774098022   -11.1444499452    -9.8383679321
   30      H     -10.6641514916   -11.1451858780   -11.5999994235
   31      H     -12.0105304752   -10.5245417042   -10.6586175646
 ----------------------------------------------------------------

   13    -634.0166164995      6.78e-10  Convergence criterion met
 Total energy in the final basis set =     -634.0166164995
 Final energy is   -634.016616499531
 **  OPTIMIZATION CONVERGED  **

                    Orbital Energies (a.u.)
 --------------------------------------------------------------

 Alpha MOs
 -- Occupied --
-14.665 -10.491 -10.491 -10.468 -10.449 -10.449 -10.445 -10.445
-10.444 -10.443 -10.442 -10.442 -10.435 -10.435 -10.423 -10.423
 -1.074  -0.959  -0.952  -0.908  -0.850  -0.835  -0.816  -0.801
 -0.766  -0.722  -0.706  -0.673  -0.670  -0.616  -0.611  -0.600
 -0.535  -0.534  -0.523  -0.520  -0.498  -0.492  -0.483  -0.479
 -0.478  -0.454  -0.449  -0.437  -0.426  -0.423  -0.415  -0.404
 -0.395  -0.376  -0.372  -0.366  -0.295  -0.289  -0.284  -0.221

          Ground-State Mulliken Net Atomic Charges

     Atom                 Charge (a.u.)
  ----------------------------------------
      1 H                     0.372270
      2 N                    -0.814391
      3 C                     0.345576
      4 C                     0.126293
      5 C                    -0.202318
      6 C                    -0.305044
      7 H                     0.223016
      8 C                    -0.246109
      9 H                     0.226070
     10 C                    -0.246333
     11 H                     0.230992
     12 C                    -0.330230
     13 H                     0.227311
     14 C                     0.346425
     15 C                     0.126433
     16 C                    -0.305592
     17 H                     0.223311
     18 C                    -0.246017
     19 H                     0.226102
     20 C                    -0.246366
     21 H                     0.231056
     22 C                    -0.330556
     23 H                     0.227277
     24 C                    -0.607777
     25 C                    -0.608964
     26 H                     0.235409
     27 H                     0.221615
     28 H                     0.221488
     29 H                     0.235651
     30 H                     0.221730
     31 H                     0.221670
  ----------------------------------------
  Sum of atomic charges =     0.000000

                    Cartesian Multipole Moments
 -----------------------------------------------------------------
    Charge (ESU x 10^10)
                 0.0000
    Dipole Moment (Debye)
         X       0.6369      Y       0.3713      Z       0.6649
       Tot       0.9928
    Quadrupole Moments (Debye-Ang)
        XX     -96.3521     XY      -7.2846     YY    -103.5174
        XZ      -8.1321     YZ      -1.0469     ZZ    -100.4493

 Total job time:  580.01s(wall), 2173.46s(cpu)
        *  Thank you very much for using Q-Chem.  Have a nice day.  *
