 Q-Chem 5.1, Q-Chem, Inc., Pleasanton, CA (2018)
 Q-Chem 5.1.1 for Intel X86 EM64T Linux

User input:
--------------------------------------------------------------
$molecule
read Cz.mol
$end

$rem
threads 4
jobtype	opt
method PBEh-3c
basis def2-mSVP
mem_static	512
mem_total	3000
sym_ignore	true
$end

--------------------------------------------------------------

   14    -516.3179749016      9.34e-09  Convergence criterion met
 Total energy in the final basis set =     -516.3179749016
   12    -516.3310176191      4.83e-09  Convergence criterion met
 Total energy in the final basis set =     -516.3310176191
   11    -516.3311457615      3.47e-09  Convergence criterion met
 Total energy in the final basis set =     -516.3311457615
    9    -516.3311424473      9.93e-09  Convergence criterion met
 Total energy in the final basis set =     -516.3311424473
    8    -516.3311399091      6.48e-09  Convergence criterion met
 Total energy in the final basis set =     -516.3311399091
    8    -516.3311387475      3.73e-09  Convergence criterion met
 Total energy in the final basis set =     -516.3311387475

             Standard Nuclear Orientation (Angstroms)
    I     Atom           X                Y                Z
 ----------------------------------------------------------------
    1      H       0.1803394573    -1.8008744309     2.7531869659
    2      N       1.0069558967    -2.0247118402     3.2753079264
    3      C       1.7795714337    -3.1424975108     3.0922444083
    4      C       2.8333879754    -3.1187713730     4.0244264043
    5      C       2.6622712557    -1.9216722203     4.8072310102
    6      C       1.5145622749    -1.2777502983     4.3079374107
    7      C       3.3506633254    -1.3561956837     5.8740550952
    8      C       2.8873821498    -0.1734656735     6.4202277984
    9      C       1.7443120481     0.4492742722     5.9112492529
   10      C       1.0419708745    -0.0909335683     4.8501202878
   11      C       1.6237939396    -4.1856949074     2.1860578410
   12      C       2.5480812537    -5.2131813704     2.2252359283
   13      C       3.6032820005    -5.2060803371     3.1413666073
   14      C       3.7497195950    -4.1658106830     4.0403770113
   15      H       4.2348719455    -1.8365346685     6.2736276723
   16      H       3.4122623771     0.2764915637     7.2518552563
   17      H       1.3992561276     1.3725222255     6.3575042284
   18      H       0.1547093114     0.3944363237     4.4636803046
   19      H       0.8064439099    -4.2022731530     1.4759866977
   20      H       2.4492856752    -6.0398570849     1.5337980972
   21      H       4.3089510805    -6.0258235661     3.1467384812
   22      H       4.5672260924    -4.1710960155     4.7500853142
 ----------------------------------------------------------------

    7    -516.3311381584      8.95e-09  Convergence criterion met
 Total energy in the final basis set =     -516.3311381584
 Final energy is   -516.331138158397
 **  OPTIMIZATION CONVERGED  **

                    Orbital Energies (a.u.)
 --------------------------------------------------------------

 Alpha MOs
 -- Occupied --
-14.682 -10.486 -10.486 -10.448 -10.448 -10.448 -10.448 -10.447
-10.446 -10.446 -10.446 -10.438 -10.438  -1.097  -0.950  -0.946
 -0.875  -0.845  -0.818  -0.809  -0.730  -0.684  -0.680  -0.653
 -0.611  -0.585  -0.573  -0.525  -0.518  -0.499  -0.498  -0.495
 -0.488  -0.478  -0.423  -0.423  -0.413  -0.395  -0.392  -0.386
 -0.328  -0.297  -0.252  -0.243

          Ground-State Mulliken Net Atomic Charges

     Atom                 Charge (a.u.)
  ----------------------------------------
      1 H                     0.356697
      2 N                    -0.798054
      3 C                     0.360523
      4 C                     0.097501
      5 C                     0.097133
      6 C                     0.361411
      7 C                    -0.341499
      8 C                    -0.228436
      9 C                    -0.237268
     10 C                    -0.283038
     11 C                    -0.282855
     12 C                    -0.236898
     13 C                    -0.227542
     14 C                    -0.342381
     15 H                     0.206614
     16 H                     0.215830
     17 H                     0.218099
     18 H                     0.211984
     19 H                     0.211759
     20 H                     0.218229
     21 H                     0.215971
     22 H                     0.206222
  ----------------------------------------
  Sum of atomic charges =    -0.000000

                    Cartesian Multipole Moments
 -----------------------------------------------------------------
    Charge (ESU x 10^10)
                -0.0000
    Dipole Moment (Debye)
         X      -1.4411      Y       0.3606      Z      -0.8577
       Tot       1.7154
    Quadrupole Moments (Debye-Ang)
        XX     -73.8039     XY      -1.5137     YY     -72.4005
        XZ       0.9613     YZ       7.7161     ZZ     -78.7389

 Total job time:  200.83s(wall), 802.90s(cpu)
        *  Thank you very much for using Q-Chem.  Have a nice day.  *
