 Q-Chem 5.1, Q-Chem, Inc., Pleasanton, CA (2018)
 Q-Chem 5.1.1 for Intel X86 EM64T Linux

User input:
--------------------------------------------------------------
$rem
threads 4
jobtype opt
method PBEh-3c
basis def2-mSVP
mem_static      1024
mem_total       4000
sym_ignore      true
unrestricted true
scf_algorithm	diis
scf_max_cycles	250
solvent_method  pcm
geom_opt_tol_energy 25
geom_opt_tol_gradient 75
$end

$pcm
theory  iefpcm
$end

$solvent
dielectric      2.38
$end

$molecule
read Cz_DiOMe_kat.mol
$end
--------------------------------------------------------------

   20    -744.6556108384      8.57e-09  Convergence criterion met
 Total energy in the final basis set =     -744.6556108384
   17    -744.6797645245      6.80e-09  Convergence criterion met
 Total energy in the final basis set =     -744.6797645245
   16    -744.6814171053      9.01e-09  Convergence criterion met
 Total energy in the final basis set =     -744.6814171053
   16    -744.6815663892      7.68e-09  Convergence criterion met
 Total energy in the final basis set =     -744.6815663892
   15    -744.6816043084      8.60e-09  Convergence criterion met
 Total energy in the final basis set =     -744.6816043084
   17    -744.6816073459      3.78e-09  Convergence criterion met
 Total energy in the final basis set =     -744.6816073459
   17    -744.6816090486      4.97e-09  Convergence criterion met
 Total energy in the final basis set =     -744.6816090486
   17    -744.6816101024      4.46e-09  Convergence criterion met
 Total energy in the final basis set =     -744.6816101024

             Standard Nuclear Orientation (Angstroms)
    I     Atom           X                Y                Z
 ----------------------------------------------------------------
    1      H       0.1153175645    -1.7489322934     2.7041559591
    2      N       0.9398924301    -1.9780894518     3.2433798541
    3      C       1.7046974963    -3.0919202533     3.0548888059
    4      C       2.7574394353    -3.0718671749     3.9953186228
    5      C       2.5758429141    -1.8614033835     4.7804291644
    6      C       1.4243503232    -1.2272498299     4.2606329671
    7      C       3.2544437663    -1.3085945725     5.8364603712
    8      C       2.7650599094    -0.1030241619     6.3766295985
    9      C       1.6069910553     0.5162852526     5.8462616589
   10      C       0.9299465465    -0.0324024203     4.7918739293
   11      C       1.5459568579    -4.1320889111     2.1469233157
   12      C       2.4586991621    -5.1693828751     2.1789568286
   13      C       3.5132379500    -5.1628501045     3.1044547023
   14      C       3.6612696342    -4.0985904117     4.0263688002
   15      H       4.1340921834    -1.7956694613     6.2341397185
   16      O       3.3268094642     0.5265042418     7.3899206121
   17      H       1.2654627962     1.4383878188     6.2962907480
   18      H       0.0438804507     0.4417893814     4.3912441690
   19      H       0.7317201036    -4.1451858472     1.4342705253
   20      H       2.3408315207    -5.9851469943     1.4800914518
   21      O       4.4266051525    -6.1142277996     3.1980334785
   22      H       4.4804112206    -4.1258295731     4.7336454947
   23      C       4.3773330988    -7.2344023390     2.3273256819
   24      C       4.4999788687     0.0032099062     7.9955319320
   25      H       5.2248752612    -7.8591600243     2.5923843638
   26      H       4.4693731079    -6.9326490041     1.2820729519
   27      H       3.4566761237    -7.8055899558     2.4635544619
   28      H       4.7624349025     0.6954211673     8.7894893189
   29      H       5.3248964054    -0.0513142706     7.2824300164
   30      H       4.3196642946    -0.9832766548     8.4270104973
 ----------------------------------------------------------------

   16    -744.6816111132      4.57e-09  Convergence criterion met
 Total energy in the final basis set =     -744.6816111132
 Final energy is   -744.681611113209
 **  OPTIMIZATION CONVERGED  **

                    Orbital Energies (a.u.)
 --------------------------------------------------------------

 Alpha MOs
 -- Occupied --
-19.612 -19.608 -14.803 -10.603 -10.599 -10.573 -10.567 -10.546
-10.543 -10.541 -10.541 -10.540 -10.538 -10.534 -10.533 -10.521
-10.520  -1.273  -1.268  -1.205  -1.038  -1.037  -0.966  -0.938
 -0.916  -0.905  -0.862  -0.851  -0.806  -0.766  -0.755  -0.742
 -0.702  -0.679  -0.675  -0.653  -0.637  -0.615  -0.614  -0.608
 -0.597  -0.591  -0.580  -0.572  -0.553  -0.546  -0.536  -0.529
 -0.510  -0.501  -0.497  -0.491  -0.459  -0.455  -0.451  -0.449
 -0.407  -0.368  -0.328  -0.315

 Beta MOs
 -- Occupied --
-19.609 -19.605 -14.795 -10.600 -10.596 -10.574 -10.569 -10.544
-10.544 -10.541 -10.540 -10.538 -10.536 -10.533 -10.532 -10.522
-10.522  -1.266  -1.262  -1.193  -1.034  -1.030  -0.962  -0.932
 -0.910  -0.903  -0.861  -0.848  -0.804  -0.762  -0.752  -0.738
 -0.699  -0.676  -0.673  -0.651  -0.635  -0.614  -0.600  -0.596
 -0.589  -0.578  -0.576  -0.571  -0.552  -0.546  -0.535  -0.528
 -0.500  -0.496  -0.490  -0.484  -0.457  -0.449  -0.441  -0.425
 -0.394  -0.353  -0.314

          Ground-State Mulliken Net Atomic Charges

     Atom                 Charge (a.u.)    Spin (a.u.)
  --------------------------------------------------------
      1 H                     0.424990      -0.014670
      2 N                    -0.714069       0.311126
      3 C                     0.342539      -0.071752
      4 C                     0.155192       0.021652
      5 C                     0.162564       0.110993
      6 C                     0.343002      -0.040652
      7 C                    -0.492826       0.013358
      8 C                     0.445584       0.191760
      9 C                    -0.327714      -0.091888
     10 C                    -0.230442       0.125186
     11 C                    -0.229968       0.168419
     12 C                    -0.377625      -0.105914
     13 C                     0.450348       0.154124
     14 C                    -0.448742       0.082768
     15 H                     0.281247      -0.001478
     16 O                    -0.416905       0.081944
     17 H                     0.293266       0.003603
     18 H                     0.281023      -0.007149
     19 H                     0.281251      -0.009257
     20 H                     0.290712       0.004383
     21 O                    -0.425020       0.073041
     22 H                     0.273069      -0.004991
     23 C                    -0.438515      -0.007352
     24 C                    -0.441577      -0.008750
     25 H                     0.276763      -0.000014
     26 H                     0.239597       0.005053
     27 H                     0.239739       0.005157
     28 H                     0.282491      -0.000071
     29 H                     0.240327       0.005681
     30 H                     0.239699       0.005690
  --------------------------------------------------------
  Sum of atomic charges =     1.000000

                    Cartesian Multipole Moments
 -----------------------------------------------------------------
    Charge (ESU x 10^10)
                 4.8032
    Dipole Moment (Debye)
         X      11.3752      Y     -13.1888      Z      19.1176
       Tot      25.8616
    Quadrupole Moments (Debye-Ang)
        XX     -45.9371     XY     -41.8545     YY     -19.9313
        XZ      62.1324     YZ     -27.4871     ZZ       9.1138

 Total job time:  1447.35s(wall), 5470.81s(cpu)
        *  Thank you very much for using Q-Chem.  Have a nice day.  *
