 Q-Chem 5.1, Q-Chem, Inc., Pleasanton, CA (2018)
 Q-Chem 5.1.1 for Intel X86 EM64T Linux

User input:
--------------------------------------------------------------
$rem
threads 4
jobtype opt
method PBEh-3c
basis def2-mSVP
mem_static      1024
mem_total       4000
sym_ignore      true
unrestricted true
scf_algorithm	diis
scf_max_cycles	250
solvent_method  pcm
geom_opt_tol_energy 25
geom_opt_tol_gradient 75
$end

$pcm
theory  iefpcm
$end

$solvent
dielectric      1.0001
$end

$molecule
read Cz_DiOMe_kat.mol
$end
--------------------------------------------------------------

   21    -744.6120675881      8.90e-09  Convergence criterion met
 Total energy in the final basis set =     -744.6120675881
   17    -744.6368239899      7.96e-09  Convergence criterion met
 Total energy in the final basis set =     -744.6368239899
   16    -744.6385854599      8.32e-09  Convergence criterion met
 Total energy in the final basis set =     -744.6385854599
   15    -744.6387242422      5.72e-09  Convergence criterion met
 Total energy in the final basis set =     -744.6387242422
   13    -744.6387539702      8.12e-09  Convergence criterion met
 Total energy in the final basis set =     -744.6387539702
   12    -744.6387559230      8.60e-09  Convergence criterion met
 Total energy in the final basis set =     -744.6387559230
   12    -744.6387569497      8.23e-09  Convergence criterion met
 Total energy in the final basis set =     -744.6387569497

             Standard Nuclear Orientation (Angstroms)
    I     Atom           X                Y                Z
 ----------------------------------------------------------------
    1      H       0.1158723345    -1.7463427365     2.7049382624
    2      N       0.9379982858    -1.9778529392     3.2440819574
    3      C       1.7012234190    -3.0937841188     3.0539612622
    4      C       2.7529297979    -3.0747981971     3.9952960943
    5      C       2.5729745763    -1.8647501685     4.7816542791
    6      C       1.4230950114    -1.2269876027     4.2628468551
    7      C       3.2521203088    -1.3122309764     5.8379352786
    8      C       2.7668214800    -0.1049373325     6.3781023633
    9      C       1.6091040138     0.5168852448     5.8474933730
   10      C       0.9315273854    -0.0306189342     4.7941342907
   11      C       1.5427641042    -4.1323894737     2.1442642974
   12      C       2.4544477647    -5.1697950085     2.1731525650
   13      C       3.5092954990    -5.1659109054     3.0989029404
   14      C       3.6558215612    -4.1023033934     4.0232568141
   15      H       4.1306814441    -1.7989179675     6.2380715001
   16      O       3.3285342865     0.5251892106     7.3878242035
   17      H       1.2716808973     1.4398117680     6.2985358378
   18      H       0.0469740778     0.4483999187     4.3957972315
   19      H       0.7299938537    -4.1457407368     1.4297554861
   20      H       2.3367711909    -5.9827934910     1.4713528628
   21      O       4.4227089619    -6.1133399542     3.1926299456
   22      H       4.4766900045    -4.1357698941     4.7278605954
   23      C       4.3819984558    -7.2373578379     2.3268683505
   24      C       4.5011444880     0.0098075848     7.9986357770
   25      H       5.2311756215    -7.8567636577     2.5983755482
   26      H       4.4786285817    -6.9397326910     1.2806871750
   27      H       3.4639257115    -7.8128371818     2.4630273950
   28      H       4.7602285042     0.7085009229     8.7878361026
   29      H       5.3283599898    -0.0465683040     7.2879430039
   30      H       4.3226983886    -0.9733211467     8.4389483522
 ----------------------------------------------------------------

   11    -744.6387572088      8.83e-09  Convergence criterion met
 Total energy in the final basis set =     -744.6387572088
 Final energy is   -744.638757208758
 **  OPTIMIZATION CONVERGED  **

                    Orbital Energies (a.u.)
 --------------------------------------------------------------

 Alpha MOs
 -- Occupied --
-19.681 -19.677 -14.877 -10.673 -10.669 -10.645 -10.639 -10.617
-10.613 -10.613 -10.611 -10.609 -10.609 -10.605 -10.604 -10.591
-10.591  -1.343  -1.337  -1.277  -1.109  -1.108  -1.037  -1.008
 -0.987  -0.976  -0.933  -0.921  -0.877  -0.838  -0.826  -0.813
 -0.775  -0.749  -0.746  -0.724  -0.708  -0.686  -0.684  -0.677
 -0.668  -0.663  -0.652  -0.643  -0.625  -0.616  -0.605  -0.601
 -0.580  -0.571  -0.568  -0.562  -0.527  -0.525  -0.520  -0.519
 -0.477  -0.438  -0.398  -0.385

 Beta MOs
 -- Occupied --
-19.678 -19.674 -14.869 -10.670 -10.666 -10.646 -10.640 -10.615
-10.613 -10.610 -10.610 -10.609 -10.607 -10.604 -10.603 -10.592
-10.592  -1.336  -1.331  -1.266  -1.105  -1.101  -1.033  -1.003
 -0.981  -0.974  -0.932  -0.919  -0.875  -0.834  -0.823  -0.809
 -0.772  -0.746  -0.744  -0.721  -0.706  -0.685  -0.669  -0.664
 -0.661  -0.650  -0.648  -0.642  -0.623  -0.615  -0.604  -0.599
 -0.570  -0.567  -0.560  -0.554  -0.525  -0.518  -0.511  -0.495
 -0.464  -0.423  -0.382

          Ground-State Mulliken Net Atomic Charges

     Atom                 Charge (a.u.)    Spin (a.u.)
  --------------------------------------------------------
      1 H                     0.404335      -0.014440
      2 N                    -0.725857       0.296870
      3 C                     0.345492      -0.064657
      4 C                     0.165217       0.013643
      5 C                     0.171173       0.108202
      6 C                     0.344659      -0.030207
      7 C                    -0.490743       0.017633
      8 C                     0.450650       0.185887
      9 C                    -0.317222      -0.083100
     10 C                    -0.223829       0.113113
     11 C                    -0.221956       0.162583
     12 C                    -0.369315      -0.102749
     13 C                     0.456059       0.149796
     14 C                    -0.444622       0.094122
     15 H                     0.264817      -0.001740
     16 O                    -0.406553       0.085603
     17 H                     0.292081       0.003168
     18 H                     0.269095      -0.006597
     19 H                     0.268857      -0.009042
     20 H                     0.281643       0.004256
     21 O                    -0.415406       0.077592
     22 H                     0.262580      -0.005647
     23 C                    -0.434755      -0.007708
     24 C                    -0.436868      -0.009033
     25 H                     0.280888      -0.000006
     26 H                     0.236322       0.005308
     27 H                     0.236572       0.005418
     28 H                     0.287114      -0.000061
     29 H                     0.235018       0.005888
     30 H                     0.234554       0.005906
  --------------------------------------------------------
  Sum of atomic charges =     1.000000

                    Cartesian Multipole Moments
 -----------------------------------------------------------------
    Charge (ESU x 10^10)
                 4.8032
    Dipole Moment (Debye)
         X      11.8785      Y     -13.2352      Z      19.5234
       Tot      26.4089
    Quadrupole Moments (Debye-Ang)
        XX     -43.9948     XY     -43.6126     YY     -17.4863
        XZ      64.4502     YZ     -27.3701     ZZ      12.9970

 Total job time:  1123.35s(wall), 4264.41s(cpu)
        *  Thank you very much for using Q-Chem.  Have a nice day.  *
