 Q-Chem 5.1, Q-Chem, Inc., Pleasanton, CA (2018)
 Q-Chem 5.1.1 for Intel X86 EM64T Linux

User input:
--------------------------------------------------------------
$molecule
read Cz_DiOMe.mol
$end

$rem
threads 4
jobtype	opt
method PBEh-3c
basis def2-mSVP
mem_static	512
mem_total	3000
sym_ignore	true
$end

--------------------------------------------------------------

   15    -744.8669435466      4.67e-09  Convergence criterion met
 Total energy in the final basis set =     -744.8669435466
   12    -744.8876698148      8.20e-09  Convergence criterion met
 Total energy in the final basis set =     -744.8876698148
   12    -744.8885514365      3.44e-09  Convergence criterion met
 Total energy in the final basis set =     -744.8885514365
   11    -744.8886307280      3.68e-09  Convergence criterion met
 Total energy in the final basis set =     -744.8886307280
   10    -744.8886476387      3.79e-09  Convergence criterion met
 Total energy in the final basis set =     -744.8886476387
    8    -744.8886463710      7.95e-09  Convergence criterion met
 Total energy in the final basis set =     -744.8886463710
    8    -744.8886453094      8.00e-09  Convergence criterion met
 Total energy in the final basis set =     -744.8886453094
    8    -744.8886434832      7.79e-09  Convergence criterion met
 Total energy in the final basis set =     -744.8886434832
    8    -744.8886424088      6.42e-09  Convergence criterion met
 Total energy in the final basis set =     -744.8886424088

             Standard Nuclear Orientation (Angstroms)
    I     Atom           X                Y                Z
 ----------------------------------------------------------------
    1      H       0.0734531742    -1.7483750471     2.6812209847
    2      N       0.9006888363    -1.9633044640     3.2046426348
    3      C       1.6810752149    -3.0801529454     3.0374811616
    4      C       2.7247134081    -3.0504963323     3.9826331395
    5      C       2.5386687348    -1.8519592303     4.7579989577
    6      C       1.3991269281    -1.2174736334     4.2447827885
    7      C       3.2301612677    -1.2962570193     5.8334363193
    8      C       2.7651060339    -0.1129668982     6.3802160319
    9      C       1.6178374988     0.5081211491     5.8575131524
   10      C       0.9286615566    -0.0313269791     4.7940262031
   11      C       1.5556090960    -4.1324406605     2.1453435480
   12      C       2.4841631415    -5.1598524659     2.1977657639
   13      C       3.5301407257    -5.1404113000     3.1291534740
   14      C       3.6491011297    -4.0856121752     4.0232869743
   15      H       4.1066381219    -1.8010883935     6.2166409285
   16      O       3.3435755358     0.5268806584     7.4225083583
   17      H       1.2784686905     1.4297936962     6.3114669787
   18      H       0.0450277816     0.4611034208     4.4083844111
   19      H       0.7524244988    -4.1698814749     1.4202097642
   20      H       2.3773776209    -5.9795423291     1.5005746232
   21      O       4.4685137918    -6.1130228843     3.2263830198
   22      H       4.4592488218    -4.0897036430     4.7417400356
   23      C       4.3884168405    -7.2122678138     2.3627425103
   24      C       4.5062587550    -0.0285682941     7.9706576656
   25      H       5.2260766437    -7.8622846051     2.6079194735
   26      H       4.4727880874    -6.9252225520     1.3087906899
   27      H       3.4613373498    -7.7815054898     2.4932108490
   28      H       4.8189286960     0.6318900492     8.7768012808
   29      H       5.3197132396    -0.0940187573     7.2395480949
   30      H       4.3348887784    -1.0273035862     8.3870901830
 ----------------------------------------------------------------

    8    -744.8886416380      4.66e-09  Convergence criterion met
 Total energy in the final basis set =     -744.8886416380
 Final energy is   -744.888641638045
 **  OPTIMIZATION CONVERGED  **

                    Orbital Energies (a.u.)
 --------------------------------------------------------------

 Alpha MOs
 -- Occupied --
-19.520 -19.519 -14.674 -10.498 -10.498 -10.488 -10.486 -10.478
-10.478 -10.449 -10.448 -10.446 -10.445 -10.444 -10.441 -10.441
-10.438  -1.178  -1.177  -1.090  -0.947  -0.942  -0.874  -0.849
 -0.830  -0.815  -0.780  -0.772  -0.722  -0.676  -0.668  -0.657
 -0.615  -0.599  -0.586  -0.571  -0.550  -0.533  -0.532  -0.531
 -0.512  -0.496  -0.493  -0.484  -0.474  -0.469  -0.461  -0.443
 -0.427  -0.416  -0.413  -0.410  -0.384  -0.374  -0.367  -0.350
 -0.320  -0.276  -0.242  -0.220

          Ground-State Mulliken Net Atomic Charges

     Atom                 Charge (a.u.)
  ----------------------------------------
      1 H                     0.353387
      2 N                    -0.802519
      3 C                     0.350275
      4 C                     0.122119
      5 C                     0.121473
      6 C                     0.339742
      7 C                    -0.497365
      8 C                     0.397744
      9 C                    -0.319342
     10 C                    -0.264442
     11 C                    -0.269617
     12 C                    -0.367457
     13 C                     0.406530
     14 C                    -0.457614
     15 H                     0.223422
     16 O                    -0.456581
     17 H                     0.234622
     18 H                     0.211974
     19 H                     0.211925
     20 H                     0.231026
     21 O                    -0.458134
     22 H                     0.215461
     23 C                    -0.404667
     24 C                    -0.407271
     25 H                     0.238224
     26 H                     0.200717
     27 H                     0.200965
     28 H                     0.239492
     29 H                     0.203310
     30 H                     0.202603
  ----------------------------------------
  Sum of atomic charges =     0.000000

                    Cartesian Multipole Moments
 -----------------------------------------------------------------
    Charge (ESU x 10^10)
                -0.0000
    Dipole Moment (Debye)
         X      -0.8649      Y      -1.0792      Z      -1.4606
       Tot       2.0115
    Quadrupole Moments (Debye-Ang)
        XX     -92.3968     XY      -4.8447     YY     -85.2404
        XZ       4.4230     YZ       6.0840     ZZ    -102.2760

 Total job time:  549.61s(wall), 2198.31s(cpu)
        *  Thank you very much for using Q-Chem.  Have a nice day.  *
