 Q-Chem 5.1, Q-Chem, Inc., Pleasanton, CA (2018)
 Q-Chem 5.1.1 for Intel X86 EM64T Linux

User input:
--------------------------------------------------------------
$rem
threads 4
jobtype	opt
method PBEh-3c
basis def2-mSVP
mem_static	1024
mem_total	3000
sym_ignore	true
scf_convergence	9
solvent_method	pcm
$end

$molecule
read Cz_DiOMe.mol
$end

$solvent
dielectric	2.38
$end

$pcm
theory iefpcm
$end

--------------------------------------------------------------

   16    -744.8757526876      5.81e-10  Convergence criterion met
 Total energy in the final basis set =     -744.8757526876
   14    -744.8961707689      9.47e-10  Convergence criterion met
 Total energy in the final basis set =     -744.8961707689
   14    -744.8970286624      7.25e-10  Convergence criterion met
 Total energy in the final basis set =     -744.8970286624
   14    -744.8971191278      6.38e-10  Convergence criterion met
 Total energy in the final basis set =     -744.8971191278
   14    -744.8971344338      6.23e-10  Convergence criterion met
 Total energy in the final basis set =     -744.8971344338
   14    -744.8971333677      6.65e-10  Convergence criterion met
 Total energy in the final basis set =     -744.8971333677
   14    -744.8971322252      6.36e-10  Convergence criterion met
 Total energy in the final basis set =     -744.8971322252
   14    -744.8971305524      6.34e-10  Convergence criterion met
 Total energy in the final basis set =     -744.8971305524
   14    -744.8971294025      6.33e-10  Convergence criterion met
 Total energy in the final basis set =     -744.8971294025

             Standard Nuclear Orientation (Angstroms)
    I     Atom           X                Y                Z
 ----------------------------------------------------------------
    1      H       0.0719398449    -1.7484966250     2.6798535479
    2      N       0.8998414800    -1.9638834231     3.2050280087
    3      C       1.6813215698    -3.0788608155     3.0382661872
    4      C       2.7262271776    -3.0495396364     3.9829207170
    5      C       2.5395906523    -1.8511328077     4.7583470844
    6      C       1.3982995502    -1.2184115028     4.2439303778
    7      C       3.2318646568    -1.2947989029     5.8341361404
    8      C       2.7650609226    -0.1115200056     6.3803544540
    9      C       1.6161511731     0.5083748553     5.8568261325
   10      C       0.9265968179    -0.0317314175     4.7932595981
   11      C       1.5562149419    -4.1322840904     2.1453153685
   12      C       2.4856061198    -5.1591273354     2.1973093595
   13      C       3.5329691163    -5.1397025617     3.1289985744
   14      C       3.6523630748    -4.0848024977     4.0235370165
   15      H       4.1092766355    -1.7985236365     6.2171803367
   16      O       3.3433165658     0.5289483139     7.4225629089
   17      H       1.2738547129     1.4302635402     6.3091424255
   18      H       0.0422508978     0.4588178340     4.4068870902
   19      H       0.7522825572    -4.1691320713     1.4209858909
   20      H       2.3790544290    -5.9790599448     1.5001289109
   21      O       4.4711232528    -6.1128418147     3.2242340947
   22      H       4.4620243663    -4.0857390639     4.7431759592
   23      C       4.3866065038    -7.2168097728     2.3601858446
   24      C       4.5083725598    -0.0287362228     7.9736514325
   25      H       5.2236006335    -7.8675331075     2.6049738788
   26      H       4.4689445479    -6.9298776102     1.3067878188
   27      H       3.4584903683    -7.7819568890     2.4951584180
   28      H       4.8195420203     0.6311493739     8.7806212245
   29      H       5.3211449729    -0.0930507382     7.2426487807
   30      H       4.3342578786    -1.0272514239     8.3877624181
 ----------------------------------------------------------------

   14    -744.8971287428      7.12e-10  Convergence criterion met
 Total energy in the final basis set =     -744.8971287428
 Final energy is   -744.897128742785
 **  OPTIMIZATION CONVERGED  **

                    Orbital Energies (a.u.)
 --------------------------------------------------------------

 Alpha MOs
 -- Occupied --
-19.522 -19.521 -14.673 -10.501 -10.501 -10.484 -10.483 -10.480
-10.480 -10.450 -10.450 -10.449 -10.447 -10.446 -10.443 -10.443
-10.441  -1.178  -1.177  -1.091  -0.949  -0.943  -0.876  -0.850
 -0.831  -0.816  -0.780  -0.771  -0.723  -0.677  -0.669  -0.658
 -0.615  -0.599  -0.587  -0.571  -0.551  -0.533  -0.531  -0.530
 -0.512  -0.496  -0.495  -0.485  -0.474  -0.470  -0.461  -0.444
 -0.428  -0.417  -0.414  -0.411  -0.385  -0.376  -0.369  -0.352
 -0.323  -0.279  -0.245  -0.222

          Ground-State Mulliken Net Atomic Charges

     Atom                 Charge (a.u.)
  ----------------------------------------
      1 H                     0.375616
      2 N                    -0.796795
      3 C                     0.340354
      4 C                     0.107092
      5 C                     0.108018
      6 C                     0.330659
      7 C                    -0.505692
      8 C                     0.389381
      9 C                    -0.333777
     10 C                    -0.278523
     11 C                    -0.283951
     12 C                    -0.379605
     13 C                     0.398545
     14 C                    -0.468696
     15 H                     0.241746
     16 O                    -0.465549
     17 H                     0.245655
     18 H                     0.232466
     19 H                     0.232405
     20 H                     0.248692
     21 O                    -0.467390
     22 H                     0.229378
     23 C                    -0.417227
     24 C                    -0.419522
     25 H                     0.246222
     26 H                     0.209789
     27 H                     0.210041
     28 H                     0.247584
     29 H                     0.211764
     30 H                     0.211320
  ----------------------------------------
  Sum of atomic charges =    -0.000000

                    Cartesian Multipole Moments
 -----------------------------------------------------------------
    Charge (ESU x 10^10)
                -0.0000
    Dipole Moment (Debye)
         X      -1.0850      Y      -1.2460      Z      -1.7574
       Tot       2.4120
    Quadrupole Moments (Debye-Ang)
        XX     -92.2376     XY      -4.9036     YY     -83.3887
        XZ       3.8300     YZ       6.7441     ZZ    -103.5064

 Total job time:  1573.14s(wall), 5784.26s(cpu)
        *  Thank you very much for using Q-Chem.  Have a nice day.  *
