 Q-Chem 5.1, Q-Chem, Inc., Pleasanton, CA (2018)
 Q-Chem 5.1.1 for Intel X86 EM64T Linux

User input:
--------------------------------------------------------------
$rem
threads 4
jobtype opt
method PBEh-3c
basis def2-mSVP
mem_static      1024
mem_total       4000
sym_ignore      true
unrestricted true
scf_algorithm	diis
scf_max_cycles	250
solvent_method  pcm
geom_opt_tol_energy 25
geom_opt_tol_gradient 75
$end

$pcm
theory  iefpcm
$end

$solvent
dielectric      1.0001
$end

$molecule
read Cz_kat.mol
$end
--------------------------------------------------------------

   18    -516.0374111818      8.17e-09  Convergence criterion met
 Total energy in the final basis set =     -516.0374111818
   15    -516.0521659402      6.37e-09  Convergence criterion met
 Total energy in the final basis set =     -516.0521659402
   15    -516.0525168025      9.56e-09  Convergence criterion met
 Total energy in the final basis set =     -516.0525168025
   14    -516.0525284991      6.53e-09  Convergence criterion met
 Total energy in the final basis set =     -516.0525284991
   12    -516.0525262434      8.49e-09  Convergence criterion met
 Total energy in the final basis set =     -516.0525262434
   11    -516.0525259704      8.65e-09  Convergence criterion met
 Total energy in the final basis set =     -516.0525259704

             Standard Nuclear Orientation (Angstroms)
    I     Atom           X                Y                Z
 ----------------------------------------------------------------
    1      H       0.2168575950    -1.8085695970     2.7713187499
    2      N       1.0453070684    -2.0396760285     3.3051782628
    3      C       1.8027703766    -3.1516270362     3.1064977985
    4      C       2.8646017567    -3.1336774881     4.0393637575
    5      C       2.6914826090    -1.9228199265     4.8309532635
    6      C       1.5379389624    -1.2825428517     4.3252276905
    7      C       3.3592318808    -1.3538049851     5.8832410102
    8      C       2.8631784142    -0.1506054476     6.4170123336
    9      C       1.7240138313     0.4658006155     5.9065236658
   10      C       1.0340777465    -0.0918517749     4.8429945730
   11      C       1.6141563395    -4.1815453800     2.1823366245
   12      C       2.5301167574    -5.2195156838     2.2054423652
   13      C       3.5836900983    -5.2157845109     3.1159222702
   14      C       3.7598887154    -4.1720799622     4.0429765989
   15      H       4.2450990848    -1.8087442025     6.3054086408
   16      H       3.3820408778     0.3060648804     7.2483679537
   17      H       1.3730763950     1.3882488189     6.3460956491
   18      H       0.1451349835     0.3765069681     4.4411240744
   19      H       0.7893503923    -4.1775269124     1.4815736357
   20      H       2.4250409855    -6.0415391248     1.5118156262
   21      H       4.2852098691    -6.0387412315     3.1141127062
   22      H       4.5870352605    -4.2064691392     4.7388127498
 ----------------------------------------------------------------

   12    -516.0525255161      5.65e-09  Convergence criterion met
 Total energy in the final basis set =     -516.0525255161
 Final energy is   -516.052525516104
 **  OPTIMIZATION CONVERGED  **

                    Orbital Energies (a.u.)
 --------------------------------------------------------------

 Alpha MOs
 -- Occupied --
-14.911 -10.668 -10.667 -10.632 -10.631 -10.631 -10.630 -10.622
-10.622 -10.621 -10.621 -10.608 -10.607  -1.306  -1.129  -1.128
 -1.054  -1.024  -0.996  -0.986  -0.910  -0.870  -0.854  -0.826
 -0.789  -0.761  -0.747  -0.702  -0.698  -0.690  -0.669  -0.665
 -0.664  -0.648  -0.591  -0.589  -0.589  -0.577  -0.569  -0.562
 -0.504  -0.475  -0.435  -0.426

 Beta MOs
 -- Occupied --
-14.901 -10.670 -10.668 -10.629 -10.628 -10.628 -10.627 -10.622
-10.622 -10.618 -10.617 -10.610 -10.610  -1.292  -1.124  -1.120
 -1.049  -1.018  -0.986  -0.984  -0.907  -0.864  -0.851  -0.823
 -0.785  -0.759  -0.742  -0.696  -0.687  -0.672  -0.667  -0.664
 -0.662  -0.647  -0.589  -0.587  -0.574  -0.568  -0.560  -0.541
 -0.492  -0.443  -0.428

          Ground-State Mulliken Net Atomic Charges

     Atom                 Charge (a.u.)    Spin (a.u.)
  --------------------------------------------------------
      1 H                     0.415128      -0.017052
      2 N                    -0.704526       0.368058
      3 C                     0.362695      -0.089564
      4 C                     0.150253       0.093131
      5 C                     0.149810       0.085627
      6 C                     0.362327      -0.092017
      7 C                    -0.333164      -0.025576
      8 C                    -0.187523       0.274351
      9 C                    -0.232142      -0.155546
     10 C                    -0.231168       0.251160
     11 C                    -0.230226       0.255997
     12 C                    -0.231597      -0.160261
     13 C                    -0.185743       0.285500
     14 C                    -0.334466      -0.032400
     15 H                     0.262971       0.001151
     16 H                     0.288294      -0.014867
     17 H                     0.284933       0.006659
     18 H                     0.278087      -0.013481
     19 H                     0.278428      -0.013773
     20 H                     0.285422       0.006868
     21 H                     0.289015      -0.015441
     22 H                     0.263191       0.001477
  --------------------------------------------------------
  Sum of atomic charges =     1.000000

                    Cartesian Multipole Moments
 -----------------------------------------------------------------
    Charge (ESU x 10^10)
                 4.8032
    Dipole Moment (Debye)
         X       9.6280      Y     -11.2657      Z      19.0289
       Tot      24.1188
    Quadrupole Moments (Debye-Ang)
        XX     -36.7556     XY     -33.5293     YY     -17.3691
        XZ      49.4026     YZ     -27.2905     ZZ      20.1584

 Total job time:  500.54s(wall), 1883.08s(cpu)
        *  Thank you very much for using Q-Chem.  Have a nice day.  *
