 Q-Chem 5.1, Q-Chem, Inc., Pleasanton, CA (2018)
 Q-Chem 5.1.1 for Intel X86 EM64T Linux

User input:
--------------------------------------------------------------
$rem
threads 4
jobtype opt
method PBEh-3c
basis def2-mSVP
mem_static      1024
mem_total       4000
sym_ignore      true
unrestricted true
scf_algorithm	diis
scf_max_cycles	250
solvent_method  pcm
geom_opt_tol_energy 25
geom_opt_tol_gradient 75
$end

$pcm
theory  iefpcm
$end

$solvent
dielectric      2.38
$end

$molecule
read Cz_kat.mol
$end
--------------------------------------------------------------

   18    -516.0839688216      5.81e-09  Convergence criterion met
 Total energy in the final basis set =     -516.0839688216
   16    -516.0982630549      4.18e-09  Convergence criterion met
 Total energy in the final basis set =     -516.0982630549
   17    -516.0985891872      5.15e-09  Convergence criterion met
 Total energy in the final basis set =     -516.0985891872
   16    -516.0986003305      9.42e-09  Convergence criterion met
 Total energy in the final basis set =     -516.0986003305
   16    -516.0985978450      8.54e-09  Convergence criterion met
 Total energy in the final basis set =     -516.0985978450
   17    -516.0985974540      4.28e-09  Convergence criterion met
 Total energy in the final basis set =     -516.0985974540

             Standard Nuclear Orientation (Angstroms)
    I     Atom           X                Y                Z
 ----------------------------------------------------------------
    1      H       0.2148315293    -1.8080411091     2.7700373786
    2      N       1.0452695106    -2.0385642962     3.3038584013
    3      C       1.8030064959    -3.1491610471     3.1061100392
    4      C       2.8655402142    -3.1325649865     4.0383083455
    5      C       2.6923834920    -1.9223621068     4.8299829018
    6      C       1.5384707468    -1.2833202048     4.3235538094
    7      C       3.3605507463    -1.3551407355     5.8828601072
    8      C       2.8638122284    -0.1525028895     6.4166159333
    9      C       1.7244164911     0.4633878824     5.9060423347
   10      C       1.0339253912    -0.0938169056     4.8417826215
   11      C       1.6137451339    -4.1792797920     2.1828830578
   12      C       2.5298812712    -5.2179499852     2.2074756491
   13      C       3.5837657732    -5.2146174051     3.1175923348
   14      C       3.7609984476    -4.1706566245     4.0437804867
   15      H       4.2463773951    -1.8122567345     6.3030666620
   16      H       3.3822460644     0.3040446167     7.2483316203
   17      H       1.3728746139     1.3855397865     6.3459516735
   18      H       0.1442419429     0.3707170665     4.4373772108
   19      H       0.7873827779    -4.1722400187     1.4841967232
   20      H       2.4240710790    -6.0407930107     1.5147848324
   21      H       4.2844380528    -6.0383401473     3.1164985973
   22      H       4.5870706022    -4.2025813532     4.7412092795
 ----------------------------------------------------------------

   17    -516.0985968699      4.49e-09  Convergence criterion met
 Total energy in the final basis set =     -516.0985968699
 Final energy is   -516.098596869926
 **  OPTIMIZATION CONVERGED  **

                    Orbital Energies (a.u.)
 --------------------------------------------------------------

 Alpha MOs
 -- Occupied --
-14.828 -10.587 -10.586 -10.552 -10.551 -10.551 -10.550 -10.543
-10.542 -10.542 -10.542 -10.530 -10.529  -1.224  -1.050  -1.048
 -0.975  -0.944  -0.915  -0.907  -0.830  -0.790  -0.774  -0.746
 -0.707  -0.681  -0.667  -0.621  -0.618  -0.610  -0.588  -0.586
 -0.584  -0.569  -0.512  -0.510  -0.510  -0.498  -0.489  -0.482
 -0.426  -0.397  -0.355  -0.348

 Beta MOs
 -- Occupied --
-14.818 -10.589 -10.588 -10.550 -10.549 -10.548 -10.547 -10.543
-10.542 -10.539 -10.538 -10.532 -10.531  -1.210  -1.045  -1.040
 -0.969  -0.938  -0.907  -0.904  -0.826  -0.784  -0.771  -0.743
 -0.704  -0.679  -0.663  -0.616  -0.607  -0.591  -0.586  -0.585
 -0.581  -0.568  -0.510  -0.508  -0.495  -0.488  -0.481  -0.461
 -0.413  -0.365  -0.350

          Ground-State Mulliken Net Atomic Charges

     Atom                 Charge (a.u.)    Spin (a.u.)
  --------------------------------------------------------
      1 H                     0.435920      -0.017208
      2 N                    -0.692071       0.382544
      3 C                     0.361728      -0.098317
      4 C                     0.142290       0.098042
      5 C                     0.141792       0.090301
      6 C                     0.361743      -0.100443
      7 C                    -0.338106      -0.030377
      8 C                    -0.196876       0.271900
      9 C                    -0.242902      -0.155417
     10 C                    -0.236262       0.254258
     11 C                    -0.235218       0.259836
     12 C                    -0.242194      -0.160685
     13 C                    -0.194877       0.283572
     14 C                    -0.339385      -0.037195
     15 H                     0.271964       0.001401
     16 H                     0.289772      -0.014772
     17 H                     0.285770       0.006674
     18 H                     0.288619      -0.013526
     19 H                     0.289009      -0.013852
     20 H                     0.286393       0.006909
     21 H                     0.290702      -0.015371
     22 H                     0.272189       0.001727
  --------------------------------------------------------
  Sum of atomic charges =     1.000000

                    Cartesian Multipole Moments
 -----------------------------------------------------------------
    Charge (ESU x 10^10)
                 4.8032
    Dipole Moment (Debye)
         X       9.2282      Y     -11.1652      Z      18.7630
       Tot      23.7038
    Quadrupole Moments (Debye-Ang)
        XX     -37.9685     XY     -32.3972     YY     -19.0478
        XZ      47.7462     YZ     -27.1243     ZZ      17.6660

 Total job time:  552.74s(wall), 2100.53s(cpu)
        *  Thank you very much for using Q-Chem.  Have a nice day.  *
