 Q-Chem 5.1, Q-Chem, Inc., Pleasanton, CA (2018)
 Q-Chem 5.1.1 for Intel X86 EM64T Linux

User input:
--------------------------------------------------------------
$molecule
read Cz_tBu.mol
$end

$rem
threads 4
jobtype	opt
method PBEh-3c
basis def2-mSVP
mem_static	512
mem_total	3000
sym_ignore	true
$end

--------------------------------------------------------------

   14    -830.1447827601      7.92e-09  Convergence criterion met
 Total energy in the final basis set =     -830.1447827601
   12    -830.1691662673      6.69e-09  Convergence criterion met
 Total energy in the final basis set =     -830.1691662673
   11    -830.1701023271      9.24e-09  Convergence criterion met
 Total energy in the final basis set =     -830.1701023271
   10    -830.1701290963      8.51e-09  Convergence criterion met
 Total energy in the final basis set =     -830.1701290963
    9    -830.1701452929      9.56e-09  Convergence criterion met
 Total energy in the final basis set =     -830.1701452929
    9    -830.1701605442      6.55e-09  Convergence criterion met
 Total energy in the final basis set =     -830.1701605442
    8    -830.1701582189      8.53e-09  Convergence criterion met
 Total energy in the final basis set =     -830.1701582189
    7    -830.1701566915      7.32e-09  Convergence criterion met
 Total energy in the final basis set =     -830.1701566915

             Standard Nuclear Orientation (Angstroms)
    I     Atom           X                Y                Z
 ----------------------------------------------------------------
    1      H      -0.0061612394    -1.6995405671     2.5993667395
    2      N       0.8186059185    -1.9359330609     3.1184395768
    3      C       1.5814178537    -3.0596111429     2.9278346411
    4      C       2.6322246099    -3.0576961060     3.8623550657
    5      C       2.4714399061    -1.8644026257     4.6556715923
    6      C       1.3334553159    -1.2090954264     4.1621699861
    7      C       3.1708006254    -1.3194555080     5.7274352420
    8      C       2.7441703019    -0.1379584098     6.3125476425
    9      C       1.5929026890     0.4830724161     5.7958890984
   10      C       0.8799123238    -0.0281865759     4.7310516472
   11      C       1.4306297167    -4.0983649343     2.0223154735
   12      C       2.3441298158    -5.1376409701     2.0675968104
   13      C       3.4025476515    -5.1744119992     2.9849668795
   14      C       3.5309020155    -4.1165067834     3.8788087582
   15      H       4.0479130097    -1.8348725971     6.0944371549
   16      C       3.4708115141     0.5055918580     7.4873536460
   17      H       1.2403231868     1.4029191844     6.2455825812
   18      H      -0.0036362671     0.4773988921     4.3621799710
   19      H       0.6218757543    -4.1125505198     1.3022395450
   20      H       2.2164505813    -5.9467564393     1.3621129415
   21      C       4.3962065111    -6.3331851669     3.0356579482
   22      H       4.3347275404    -4.1143847827     4.6060431932
   23      C       4.0953027382    -7.4067238169     1.9889582764
   24      C       4.3433906558    -6.9936575398     4.4190277494
   25      C       5.8115336450    -5.8026259631     2.7750766129
   26      C       4.7232391553    -0.2741712811     7.8872695176
   27      C       2.5335087194     0.5577325530     8.6999000878
   28      H       4.4895201345    -1.2907833841     8.2085450377
   29      H       5.2173595568     0.2219440102     8.7242162134
   30      H       5.4471985545    -0.3329003731     7.0724376167
   31      H       2.2152951151    -0.4445897518     8.9902235010
   32      H       1.6338601244     1.1404071096     8.4979527553
   33      H       3.0344398578     1.0144794852     9.5563644017
   34      C       3.9003928299     1.9274806245     7.1047048117
   35      H       3.3480165120    -7.3888063988     4.6270068763
   36      H       4.5918971886    -6.2930174957     5.2168002272
   37      H       5.0538256424    -7.8211734636     4.4772747607
   38      H       3.1104753968    -7.8553136415     2.1313400825
   39      H       4.8297696339    -8.2105701265     2.0624781948
   40      H       4.1474452507    -7.0150493689     0.9714816058
   41      H       5.8783277076    -5.3377819468     1.7903669291
   42      H       6.5419434868    -6.6139157530     2.8158938360
   43      H       6.1108392378    -5.0559879148     3.5115014059
   44      H       4.5585893662     1.9156282248     6.2347424502
   45      H       4.4373287741     2.4028462790     7.9283519362
   46      H       3.0492013815     2.5643511980     6.8612089796
 ----------------------------------------------------------------

    7    -830.1701567759      6.68e-09  Convergence criterion met
 Total energy in the final basis set =     -830.1701567759
 Final energy is   -830.170156775895
 **  OPTIMIZATION CONVERGED  **

                    Orbital Energies (a.u.)
 --------------------------------------------------------------

 Alpha MOs
 -- Occupied --
-14.677 -10.480 -10.480 -10.455 -10.455 -10.444 -10.442 -10.442
-10.442 -10.442 -10.441 -10.441 -10.440 -10.440 -10.439 -10.421
-10.421 -10.420 -10.420 -10.419 -10.419  -1.092  -0.955  -0.952
 -0.907  -0.905  -0.866  -0.830  -0.807  -0.805  -0.767  -0.763
 -0.762  -0.762  -0.724  -0.691  -0.679  -0.650  -0.627  -0.608
 -0.604  -0.580  -0.545  -0.530  -0.525  -0.508  -0.505  -0.499
 -0.495  -0.492  -0.491  -0.480  -0.474  -0.473  -0.457  -0.446
 -0.443  -0.441  -0.427  -0.425  -0.413  -0.412  -0.408  -0.402
 -0.399  -0.386  -0.375  -0.372  -0.371  -0.365  -0.363  -0.360
 -0.322  -0.286  -0.246  -0.233

          Ground-State Mulliken Net Atomic Charges

     Atom                 Charge (a.u.)
  ----------------------------------------
      1 H                     0.354420
      2 N                    -0.801914
      3 C                     0.345114
      4 C                     0.134269
      5 C                     0.142485
      6 C                     0.343060
      7 C                    -0.461185
      8 C                     0.211394
      9 C                    -0.294145
     10 C                    -0.267475
     11 C                    -0.261600
     12 C                    -0.324328
     13 C                     0.214368
     14 C                    -0.432696
     15 H                     0.205531
     16 C                    -0.180620
     17 H                     0.206269
     18 H                     0.207750
     19 H                     0.206522
     20 H                     0.216229
     21 C                    -0.178878
     22 H                     0.195672
     23 C                    -0.648537
     24 C                    -0.602798
     25 C                    -0.602645
     26 C                    -0.648697
     27 C                    -0.602537
     28 H                     0.220231
     29 H                     0.225154
     30 H                     0.222233
     31 H                     0.225326
     32 H                     0.213808
     33 H                     0.209981
     34 C                    -0.605070
     35 H                     0.224920
     36 H                     0.214622
     37 H                     0.209313
     38 H                     0.220603
     39 H                     0.224454
     40 H                     0.220497
     41 H                     0.224778
     42 H                     0.209209
     43 H                     0.214881
     44 H                     0.226234
     45 H                     0.210580
     46 H                     0.213217
  ----------------------------------------
  Sum of atomic charges =    -0.000000

                    Cartesian Multipole Moments
 -----------------------------------------------------------------
    Charge (ESU x 10^10)
                -0.0000
    Dipole Moment (Debye)
         X      -1.1596      Y       0.3300      Z      -0.6168
       Tot       1.3543
    Quadrupole Moments (Debye-Ang)
        XX    -124.5932     XY      -2.2849     YY    -123.7064
        XZ       2.5644     YZ       7.0455     ZZ    -128.3741

 Total job time:  1024.35s(wall), 4071.84s(cpu)
        *  Thank you very much for using Q-Chem.  Have a nice day.  *
