 Q-Chem 5.1, Q-Chem, Inc., Pleasanton, CA (2018)
 Q-Chem 5.1.1 for Intel X86 EM64T Linux

User input:
--------------------------------------------------------------
$rem
threads 4
jobtype opt
method PBEh-3c
basis def2-mSVP
mem_static      1024
mem_total       4000
sym_ignore      true
unrestricted true
scf_algorithm	diis
scf_max_cycles	250
solvent_method  pcm
geom_opt_tol_energy 25
geom_opt_tol_gradient 75
$end

$pcm
theory  iefpcm
$end

$solvent
dielectric      2.38
$end

$molecule
read Cz_tBu_kat.mol
$end
--------------------------------------------------------------

   23    -829.9215767604      5.89e-09  Convergence criterion met
 Total energy in the final basis set =     -829.9215767604
   18    -829.9471838340      6.85e-09  Convergence criterion met
 Total energy in the final basis set =     -829.9471838340
   17    -829.9490125057      7.39e-09  Convergence criterion met
 Total energy in the final basis set =     -829.9490125057
   17    -829.9490485890      8.04e-09  Convergence criterion met
 Total energy in the final basis set =     -829.9490485890
   16    -829.9490900913      9.08e-09  Convergence criterion met
 Total energy in the final basis set =     -829.9490900913
   16    -829.9491215654      7.61e-09  Convergence criterion met
 Total energy in the final basis set =     -829.9491215654
   16    -829.9491200962      6.50e-09  Convergence criterion met
 Total energy in the final basis set =     -829.9491200962
   16    -829.9491233621      8.62e-09  Convergence criterion met
 Total energy in the final basis set =     -829.9491233621
   16    -829.9491225035      9.57e-09  Convergence criterion met
 Total energy in the final basis set =     -829.9491225035
   17    -829.9491277162      6.98e-09  Convergence criterion met
 Total energy in the final basis set =     -829.9491277162
   17    -829.9491273356      7.30e-09  Convergence criterion met
 Total energy in the final basis set =     -829.9491273356

             Standard Nuclear Orientation (Angstroms)
    I     Atom           X                Y                Z
 ----------------------------------------------------------------
    1      H       0.0483423997    -1.7030565771     2.6343695310
    2      N       0.8736504423    -1.9501719821     3.1666771054
    3      C       1.6251110939    -3.0711441023     2.9558555223
    4      C       2.6802423409    -3.0808271106     3.8893005116
    5      C       2.5187237778    -1.8778029568     4.6952222173
    6      C       1.3706407313    -1.2228856957     4.1935261674
    7      C       3.1995139977    -1.3318111948     5.7523977118
    8      C       2.7449639208    -0.1291341175     6.3280509341
    9      C       1.5870904568     0.4870573601     5.8058122897
   10      C       0.8877245993    -0.0346725574     4.7445595011
   11      C       1.4427948806    -4.0907684028     2.0324671505
   12      C       2.3473025278    -5.1438469124     2.0589782776
   13      C       3.4032091883    -5.1951946455     2.9690434525
   14      C       3.5584378117    -4.1314603456     3.8950339698
   15      H       4.0791498878    -1.8273417554     6.1376081702
   16      C       3.4629676815     0.5236021368     7.4923129168
   17      H       1.2312600977     1.4059146759     6.2506008000
   18      H       0.0018644244     0.4516670728     4.3580566686
   19      H       0.6264125250    -4.0789222097     1.3219888239
   20      H       2.2109427227    -5.9445619988     1.3475550066
   21      C       4.3846217876    -6.3532754314     3.0099685811
   22      H       4.3691857027    -4.1568561535     4.6116922568
   23      C       4.0785944472    -7.4175533197     1.9569880467
   24      C       4.3222394277    -7.0113000292     4.3967620064
   25      C       5.7995953940    -5.8124208584     2.7553977268
   26      C       4.7192406085    -0.2413649523     7.9066867771
   27      C       2.5066734712     0.5794673433     8.6932955506
   28      H       4.4956148410    -1.2542352493     8.2463803523
   29      H       5.1992720205     0.2742751282     8.7384618953
   30      H       5.4526988922    -0.3002023803     7.1004139798
   31      H       2.1923358259    -0.4203007671     8.9954631910
   32      H       1.6102893935     1.1641001897     8.4853561246
   33      H       3.0102986187     1.0437866808     9.5422863643
   34      C       3.8735535596     1.9466173427     7.0839459990
   35      H       3.3264754025    -7.4050464789     4.6042387178
   36      H       4.5859639948    -6.3218828711     5.1995364366
   37      H       5.0270163945    -7.8428000143     4.4396522442
   38      H       3.0948660676    -7.8684616798     2.0983213759
   39      H       4.8130614519    -8.2198983915     2.0297504283
   40      H       4.1352017360    -7.0222605636     0.9413940571
   41      H       5.8719364470    -5.3457474975     1.7722589231
   42      H       6.5195544370    -6.6313232402     2.7920346737
   43      H       6.1067664044    -5.0772922784     3.5002683463
   44      H       4.5370368698     1.9341993705     6.2182541219
   45      H       4.4048258329     2.4261593158     7.9069697130
   46      H       3.0170854633     2.5752081047     6.8399853819
 ----------------------------------------------------------------

   17    -829.9491286782      3.77e-09  Convergence criterion met
 Total energy in the final basis set =     -829.9491286782
 Final energy is   -829.949128678158
 **  OPTIMIZATION CONVERGED  **

                    Orbital Energies (a.u.)
 --------------------------------------------------------------

 Alpha MOs
 -- Occupied --
-14.814 -10.578 -10.572 -10.545 -10.544 -10.541 -10.540 -10.539
-10.538 -10.533 -10.530 -10.521 -10.516 -10.514 -10.512 -10.469
-10.469 -10.469 -10.468 -10.468 -10.465  -1.212  -1.045  -1.043
 -0.982  -0.977  -0.953  -0.916  -0.893  -0.891  -0.828  -0.814
 -0.813  -0.812  -0.806  -0.782  -0.763  -0.735  -0.700  -0.696
 -0.683  -0.660  -0.615  -0.611  -0.610  -0.589  -0.586  -0.585
 -0.578  -0.564  -0.549  -0.546  -0.538  -0.532  -0.522  -0.515
 -0.507  -0.501  -0.491  -0.479  -0.477  -0.474  -0.472  -0.471
 -0.461  -0.459  -0.436  -0.434  -0.432  -0.430  -0.421  -0.418
 -0.411  -0.376  -0.336  -0.334

 Beta MOs
 -- Occupied --
-14.805 -10.579 -10.573 -10.542 -10.541 -10.537 -10.537 -10.537
-10.536 -10.533 -10.530 -10.523 -10.518 -10.514 -10.512 -10.469
-10.469 -10.469 -10.468 -10.468 -10.465  -1.199  -1.040  -1.036
 -0.977  -0.974  -0.949  -0.913  -0.893  -0.883  -0.826  -0.813
 -0.812  -0.811  -0.804  -0.777  -0.761  -0.732  -0.697  -0.694
 -0.681  -0.659  -0.613  -0.609  -0.588  -0.585  -0.583  -0.583
 -0.575  -0.563  -0.545  -0.543  -0.537  -0.531  -0.522  -0.514
 -0.500  -0.492  -0.490  -0.478  -0.474  -0.471  -0.471  -0.461
 -0.459  -0.446  -0.434  -0.432  -0.428  -0.425  -0.420  -0.418
 -0.400  -0.352  -0.334

          Ground-State Mulliken Net Atomic Charges

     Atom                 Charge (a.u.)    Spin (a.u.)
  --------------------------------------------------------
      1 H                     0.429481      -0.016105
      2 N                    -0.703878       0.350902
      3 C                     0.339472      -0.096328
      4 C                     0.172836       0.033571
      5 C                     0.184610       0.139209
      6 C                     0.348932      -0.067668
      7 C                    -0.447749      -0.064065
      8 C                     0.228569       0.311457
      9 C                    -0.291974      -0.150825
     10 C                    -0.228683       0.201349
     11 C                    -0.219300       0.233445
     12 C                    -0.328938      -0.135857
     13 C                     0.235435       0.230013
     14 C                    -0.416967       0.034659
     15 H                     0.262708       0.002490
     16 C                    -0.198809      -0.022528
     17 H                     0.268831       0.006506
     18 H                     0.279594      -0.010781
     19 H                     0.278839      -0.012297
     20 H                     0.274068       0.005578
     21 C                    -0.194994      -0.017124
     22 H                     0.257231      -0.002325
     23 C                    -0.661183       0.000289
     24 C                    -0.618701       0.008207
     25 C                    -0.618550       0.008200
     26 C                    -0.663293       0.000722
     27 C                    -0.615579       0.011100
     28 H                     0.231079       0.000072
     29 H                     0.255635      -0.000446
     30 H                     0.232555       0.000073
     31 H                     0.235816      -0.000422
     32 H                     0.229590      -0.000576
     33 H                     0.243358       0.002912
     34 C                    -0.617789       0.010358
     35 H                     0.237812      -0.000356
     36 H                     0.223776      -0.000395
     37 H                     0.243146       0.003001
     38 H                     0.233496       0.000124
     39 H                     0.251686      -0.000289
     40 H                     0.233710       0.000124
     41 H                     0.237967      -0.000350
     42 H                     0.242993       0.003051
     43 H                     0.224035      -0.000393
     44 H                     0.236387      -0.000391
     45 H                     0.243685       0.002657
     46 H                     0.229056      -0.000549
  --------------------------------------------------------
  Sum of atomic charges =     1.000000

                    Cartesian Multipole Moments
 -----------------------------------------------------------------
    Charge (ESU x 10^10)
                 4.8032
    Dipole Moment (Debye)
         X      10.1837      Y     -11.0501      Z      19.6466
       Tot      24.7346
    Quadrupole Moments (Debye-Ang)
        XX     -81.0186     XY     -36.4413     YY     -60.0870
        XZ      55.1037     YZ     -23.3264     ZZ     -19.1724

 Total job time:  4000.74s(wall), 15089.94s(cpu)
        *  Thank you very much for using Q-Chem.  Have a nice day.  *
