 Q-Chem 5.1, Q-Chem, Inc., Pleasanton, CA (2018)
 Q-Chem 5.1.1 for Intel X86 EM64T Linux

User input:
--------------------------------------------------------------
$rem
threads 4
jobtype	opt
method PBEh-3c
basis def2-mSVP
mem_static	1024
mem_total	3000
sym_ignore	true
scf_convergence	9
solvent_method	pcm
$end

$molecule
read Cz_tBu.mol
$end

$solvent
dielectric	2.38
$end

$pcm
theory iefpcm
$end

--------------------------------------------------------------

   16    -830.1518549276      5.49e-10  Convergence criterion met
 Total energy in the final basis set =     -830.1518549276
   14    -830.1758395841      8.31e-10  Convergence criterion met
 Total energy in the final basis set =     -830.1758395841
   14    -830.1767058272      5.23e-10  Convergence criterion met
 Total energy in the final basis set =     -830.1767058272
   14    -830.1767307848      4.50e-10  Convergence criterion met
 Total energy in the final basis set =     -830.1767307848
   14    -830.1767482199      5.74e-10  Convergence criterion met
 Total energy in the final basis set =     -830.1767482199
   14    -830.1767638998      5.74e-10  Convergence criterion met
 Total energy in the final basis set =     -830.1767638998
   14    -830.1767613741      5.65e-10  Convergence criterion met
 Total energy in the final basis set =     -830.1767613741
   14    -830.1767598920      5.78e-10  Convergence criterion met
 Total energy in the final basis set =     -830.1767598920

             Standard Nuclear Orientation (Angstroms)
    I     Atom           X                Y                Z
 ----------------------------------------------------------------
    1      H      -0.0079277847    -1.6989193372     2.5986526365
    2      N       0.8177979469    -1.9360352927     3.1187911155
    3      C       1.5807713641    -3.0584825780     2.9284407843
    4      C       2.6328252459    -3.0581894067     3.8629991958
    5      C       2.4719247710    -1.8649235920     4.6566871538
    6      C       1.3329731689    -1.2103113175     4.1619373484
    7      C       3.1721452266    -1.3197002164     5.7290859208
    8      C       2.7447683867    -0.1377363368     6.3135641513
    9      C       1.5924005464     0.4831239738     5.7961526549
   10      C       0.8790037481    -0.0284292192     4.7311455669
   11      C       1.4300785723    -4.0976789551     2.0216905222
   12      C       2.3441756259    -5.1371287799     2.0666494254
   13      C       3.4034665425    -5.1750210291     2.9846149259
   14      C       3.5325321874    -4.1174473512     3.8794039336
   15      H       4.0495243757    -1.8352712213     6.0958872978
   16      C       3.4711824487     0.5069422760     7.4881662981
   17      H       1.2396316808     1.4031980695     6.2455963316
   18      H      -0.0048138314     0.4758793107     4.3611504411
   19      H       0.6208655114    -4.1102573517     1.3020832793
   20      H       2.2162386593    -5.9458791063     1.3605070058
   21      C       4.3963361681    -6.3349106088     3.0345454782
   22      H       4.3362713686    -4.1154777767     4.6069535085
   23      C       4.0949976743    -7.4071796298     1.9865665000
   24      C       4.3427805117    -6.9962397245     4.4176615108
   25      C       5.8125791913    -5.8053272778     2.7761512226
   26      C       4.7244894572    -0.2714863327     7.8880191983
   27      C       2.5336177878     0.5593200862     8.7007006937
   28      H       4.4918470467    -1.2884587465     8.2091992133
   29      H       5.2172184995     0.2264177872     8.7248278730
   30      H       5.4482562588    -0.3296889177     7.0728547153
   31      H       2.2178499529    -0.4433440470     8.9933905298
   32      H       1.6335028189     1.1411379026     8.4975514178
   33      H       3.0353782027     1.0181337615     9.5556346325
   34      C       3.8983754884     1.9296174822     7.1051443882
   35      H       3.3472281183    -7.3920515114     4.6247809843
   36      H       4.5925456767    -6.2959858365     5.2156034881
   37      H       5.0529729033    -7.8241823455     4.4736948572
   38      H       3.1097590490    -7.8552770073     2.1282844893
   39      H       4.8298604639    -8.2107260580     2.0604696660
   40      H       4.1471911424    -7.0141897950     0.9695127367
   41      H       5.8818478407    -5.3420263609     1.7906158587
   42      H       6.5410306658    -6.6183515627     2.8186540052
   43      H       6.1110377461    -5.0590997089     3.5135738215
   44      H       4.5580375204     1.9185819278     6.2359718329
   45      H       4.4342202103     2.4046716208     7.9297358770
   46      H       3.0455538437     2.5646201405     6.8618755123
 ----------------------------------------------------------------

   14    -830.1767599657      5.77e-10  Convergence criterion met
 Total energy in the final basis set =     -830.1767599657
 Final energy is   -830.176759965665
 **  OPTIMIZATION CONVERGED  **

                    Orbital Energies (a.u.)
 --------------------------------------------------------------

 Alpha MOs
 -- Occupied --
-14.675 -10.481 -10.481 -10.454 -10.454 -10.444 -10.444 -10.443
-10.443 -10.443 -10.443 -10.442 -10.442 -10.441 -10.440 -10.419
-10.419 -10.419 -10.419 -10.418 -10.418  -1.092  -0.956  -0.952
 -0.906  -0.905  -0.867  -0.831  -0.807  -0.805  -0.766  -0.762
 -0.761  -0.761  -0.723  -0.691  -0.679  -0.650  -0.626  -0.607
 -0.603  -0.580  -0.544  -0.529  -0.524  -0.508  -0.504  -0.500
 -0.494  -0.491  -0.490  -0.479  -0.474  -0.473  -0.457  -0.445
 -0.442  -0.441  -0.425  -0.424  -0.412  -0.411  -0.408  -0.403
 -0.399  -0.386  -0.375  -0.371  -0.370  -0.365  -0.362  -0.359
 -0.324  -0.287  -0.248  -0.234

          Ground-State Mulliken Net Atomic Charges

     Atom                 Charge (a.u.)
  ----------------------------------------
      1 H                     0.376293
      2 N                    -0.796150
      3 C                     0.336110
      4 C                     0.119704
      5 C                     0.127882
      6 C                     0.334192
      7 C                    -0.468640
      8 C                     0.201200
      9 C                    -0.307128
     10 C                    -0.282484
     11 C                    -0.277221
     12 C                    -0.336033
     13 C                     0.203651
     14 C                    -0.441306
     15 H                     0.219801
     16 C                    -0.174955
     17 H                     0.221303
     18 H                     0.226864
     19 H                     0.225403
     20 H                     0.228811
     21 C                    -0.173098
     22 H                     0.212339
     23 C                    -0.656574
     24 C                    -0.613661
     25 C                    -0.613594
     26 C                    -0.656693
     27 C                    -0.613295
     28 H                     0.223638
     29 H                     0.229456
     30 H                     0.225173
     31 H                     0.226597
     32 H                     0.218162
     33 H                     0.214685
     34 C                    -0.615865
     35 H                     0.226278
     36 H                     0.218940
     37 H                     0.214033
     38 H                     0.223894
     39 H                     0.228734
     40 H                     0.223822
     41 H                     0.226096
     42 H                     0.213969
     43 H                     0.219139
     44 H                     0.227393
     45 H                     0.215305
     46 H                     0.217831
  ----------------------------------------
  Sum of atomic charges =    -0.000000

                    Cartesian Multipole Moments
 -----------------------------------------------------------------
    Charge (ESU x 10^10)
                -0.0000
    Dipole Moment (Debye)
         X      -1.3424      Y       0.3983      Z      -0.7058
       Tot       1.5681
    Quadrupole Moments (Debye-Ang)
        XX    -124.2611     XY      -2.2916     YY    -122.8981
        XZ       2.3890     YZ       8.0468     ZZ    -128.2308

 Total job time:  3265.16s(wall), 11798.64s(cpu)
        *  Thank you very much for using Q-Chem.  Have a nice day.  *
