 Q-Chem 5.1, Q-Chem, Inc., Pleasanton, CA (2018)
 Q-Chem 5.1.1 for Intel X86 EM64T Linux

User input:
--------------------------------------------------------------
$rem
threads 4
jobtype	opt
method PBEh-3c
basis def2-mSVP
mem_static	1024
mem_total	3000
sym_ignore	true
scf_convergence	9
solvent_method	pcm
$end

$molecule
read Cz.mol
$end

$solvent
dielectric	2.38
$end

$pcm
theory iefpcm
$end

--------------------------------------------------------------

   15    -516.3248447228      9.08e-10  Convergence criterion met
 Total energy in the final basis set =     -516.3248447228
   14    -516.3374278635      9.96e-10  Convergence criterion met
 Total energy in the final basis set =     -516.3374278635
   14    -516.3375433839      3.12e-10  Convergence criterion met
 Total energy in the final basis set =     -516.3375433839
   14    -516.3375402044      7.66e-10  Convergence criterion met
 Total energy in the final basis set =     -516.3375402044
   15    -516.3375378512      4.28e-10  Convergence criterion met
 Total energy in the final basis set =     -516.3375378512
   14    -516.3375367068      9.42e-10  Convergence criterion met
 Total energy in the final basis set =     -516.3375367068

             Standard Nuclear Orientation (Angstroms)
    I     Atom           X                Y                Z
 ----------------------------------------------------------------
    1      H       0.1786364141    -1.8004549076     2.7522508365
    2      N       1.0063344356    -2.0248144123     3.2754434569
    3      C       1.7788625234    -3.1414047200     3.0928965304
    4      C       2.8339607106    -3.1191919483     4.0251487014
    5      C       2.6628201971    -1.9220833747     4.8080384347
    6      C       1.5141851348    -1.2788874202     4.3072491787
    7      C       3.3520000532    -1.3564677392     5.8754564198
    8      C       2.8879843592    -0.1730467729     6.4208748132
    9      C       1.7438800650     0.4495910373     5.9107019602
   10      C       1.0412025832    -0.0909252561     4.8494315467
   11      C       1.6229109080    -4.1852198710     2.1856426485
   12      C       2.5476664530    -5.2128816648     2.2246147559
   13      C       3.6040389000    -5.2067623605     3.1413473648
   14      C       3.7512704401    -4.1665745579     4.0411910839
   15      H       4.2363597627    -1.8370293801     6.2750393021
   16      H       3.4125733546     0.2777446434     7.2525552876
   17      H       1.3987031826     1.3732230444     6.3566237796
   18      H       0.1537740260     0.3930215014     4.4615799404
   19      H       0.8049891600    -4.2001156595     1.4762044890
   20      H       2.4487302907    -6.0395365037     1.5328118453
   21      H       4.3095664577    -6.0269530642     3.1460338543
   22      H       4.5688505884    -4.1717306134     4.7511637700
 ----------------------------------------------------------------

   14    -516.3375361420      6.80e-10  Convergence criterion met
 Total energy in the final basis set =     -516.3375361420
 Final energy is   -516.337536142044
 **  OPTIMIZATION CONVERGED  **

                    Orbital Energies (a.u.)
 --------------------------------------------------------------

 Alpha MOs
 -- Occupied --
-14.680 -10.487 -10.487 -10.449 -10.449 -10.448 -10.448 -10.448
-10.448 -10.447 -10.447 -10.439 -10.439  -1.096  -0.951  -0.946
 -0.875  -0.845  -0.817  -0.810  -0.730  -0.684  -0.679  -0.653
 -0.609  -0.585  -0.573  -0.524  -0.518  -0.500  -0.497  -0.494
 -0.488  -0.478  -0.423  -0.423  -0.415  -0.395  -0.392  -0.387
 -0.330  -0.299  -0.254  -0.244

          Ground-State Mulliken Net Atomic Charges

     Atom                 Charge (a.u.)
  ----------------------------------------
      1 H                     0.379093
      2 N                    -0.792080
      3 C                     0.352082
      4 C                     0.084300
      5 C                     0.084050
      6 C                     0.352908
      7 C                    -0.352476
      8 C                    -0.246123
      9 C                    -0.252608
     10 C                    -0.296604
     11 C                    -0.296514
     12 C                    -0.252264
     13 C                    -0.245232
     14 C                    -0.353334
     15 H                     0.223318
     16 H                     0.229676
     17 H                     0.232885
     18 H                     0.231736
     19 H                     0.231397
     20 H                     0.233042
     21 H                     0.229850
     22 H                     0.222897
  ----------------------------------------
  Sum of atomic charges =    -0.000000

                    Cartesian Multipole Moments
 -----------------------------------------------------------------
    Charge (ESU x 10^10)
                 0.0000
    Dipole Moment (Debye)
         X      -1.7187      Y       0.4358      Z      -1.0316
       Tot       2.0513
    Quadrupole Moments (Debye-Ang)
        XX     -74.2210     XY      -1.0589     YY     -72.2765
        XZ       0.0424     YZ       8.6413     ZZ     -79.6846

 Total job time:  845.17s(wall), 3249.00s(cpu)
        *  Thank you very much for using Q-Chem.  Have a nice day.  *
