 Q-Chem 5.1, Q-Chem, Inc., Pleasanton, CA (2018)
 Q-Chem 5.1.1 for Intel X86 EM64T Linux

User input:
--------------------------------------------------------------
$rem
threads 4
jobtype opt
method PBEh-3c
basis def2-mSVP
mem_static      1024
mem_total       4000
sym_ignore      true
unrestricted true
scf_algorithm	diis
scf_max_cycles	250
solvent_method  pcm
geom_opt_tol_energy 25
geom_opt_tol_gradient 75
$end

$pcm
theory  iefpcm
$end

$solvent
dielectric      1.0001
$end

$molecule
read Cz_tBu_kat.mol
$end
--------------------------------------------------------------

   23    -829.8798023783      9.30e-09  Convergence criterion met
 Total energy in the final basis set =     -829.8798023783
   18    -829.9059351770      8.39e-09  Convergence criterion met
 Total energy in the final basis set =     -829.9059351770
   17    -829.9079853886      5.41e-09  Convergence criterion met
 Total energy in the final basis set =     -829.9079853886
   15    -829.9080504419      6.60e-09  Convergence criterion met
 Total energy in the final basis set =     -829.9080504419
   14    -829.9080778898      7.85e-09  Convergence criterion met
 Total energy in the final basis set =     -829.9080778898
   14    -829.9080990820      5.12e-09  Convergence criterion met
 Total energy in the final basis set =     -829.9080990820
   13    -829.9081003247      5.89e-09  Convergence criterion met
 Total energy in the final basis set =     -829.9081003247
   12    -829.9081013029      9.10e-09  Convergence criterion met
 Total energy in the final basis set =     -829.9081013029
   13    -829.9081038322      5.23e-09  Convergence criterion met
 Total energy in the final basis set =     -829.9081038322
   13    -829.9081065851      6.12e-09  Convergence criterion met
 Total energy in the final basis set =     -829.9081065851

             Standard Nuclear Orientation (Angstroms)
    I     Atom           X                Y                Z
 ----------------------------------------------------------------
    1      H       0.0479555637    -1.7037444719     2.6356580477
    2      N       0.8719238627    -1.9508367664     3.1669482492
    3      C       1.6235389202    -3.0730550813     2.9551245399
    4      C       2.6780243671    -3.0808269339     3.8887200215
    5      C       2.5169223326    -1.8774859720     4.6945295975
    6      C       1.3687682350    -1.2216595491     4.1940197943
    7      C       3.1977035124    -1.3297893326     5.7510362100
    8      C       2.7451701998    -0.1269882794     6.3280815027
    9      C       1.5862273752     0.4889053281     5.8051685781
   10      C       0.8870400295    -0.0327033574     4.7451359779
   11      C       1.4424874716    -4.0932664222     2.0317006292
   12      C       2.3470718304    -5.1453357032     2.0575085155
   13      C       3.4033076226    -5.1968200226     2.9675867556
   14      C       3.5562049425    -4.1316957827     3.8931088036
   15      H       4.0778570523    -1.8222943219     6.1383267429
   16      C       3.4635366920     0.5246038512     7.4920541723
   17      H       1.2307912592     1.4072293999     6.2506953155
   18      H       0.0014221499     0.4564796613     4.3613417443
   19      H       0.6273207070    -4.0846937515     1.3195546134
   20      H       2.2127238582    -5.9466366479     1.3465153428
   21      C       4.3847206324    -6.3540526886     3.0094466835
   22      H       4.3678726890    -4.1595998536     4.6082461773
   23      C       4.0793530367    -7.4179044378     1.9556951486
   24      C       4.3193720651    -7.0116830625     4.3968380226
   25      C       5.8002108810    -5.8122757741     2.7564502584
   26      C       4.7205458800    -0.2408144813     7.9042965227
   27      C       2.5064270900     0.5777460331     8.6933260910
   28      H       4.4991677280    -1.2534858862     8.2462737683
   29      H       5.2026510555     0.2724829386     8.7358685940
   30      H       5.4555123510    -0.2975134666     7.0991381676
   31      H       2.1933522080    -0.4214383535     8.9980523446
   32      H       1.6082672513     1.1605611510     8.4883548179
   33      H       3.0077576833     1.0435677285     9.5424753526
   34      C       3.8738230096     1.9488154044     7.0851634809
   35      H       3.3244214324    -7.4066719539     4.6046898720
   36      H       4.5827676780    -6.3248837138     5.2020618137
   37      H       5.0237000297    -7.8429892493     4.4422010940
   38      H       3.0969486634    -7.8719847425     2.0958644027
   39      H       4.8126032753    -8.2210417126     2.0273049322
   40      H       4.1386512603    -7.0249561601     0.9393288965
   41      H       5.8757093456    -5.3418545070     1.7755785280
   42      H       6.5198853229    -6.6311625763     2.7897427717
   43      H       6.1121244289    -5.0816570252     3.5038399651
   44      H       4.5349251981     1.9409428356     6.2178754994
   45      H       4.4080529814     2.4261220992     7.9071721230
   46      H       3.0195288392     2.5825756101     6.8470795183
 ----------------------------------------------------------------

    7    -829.9081051803      4.54e-09  Convergence criterion met
 Total energy in the final basis set =     -829.9081051803
 Final energy is   -829.908105180314
 **  OPTIMIZATION CONVERGED  **

                    Orbital Energies (a.u.)
 --------------------------------------------------------------

 Alpha MOs
 -- Occupied --
-14.886 -10.649 -10.642 -10.614 -10.613 -10.611 -10.610 -10.607
-10.606 -10.603 -10.598 -10.590 -10.584 -10.577 -10.575 -10.531
-10.531 -10.530 -10.530 -10.530 -10.526  -1.283  -1.114  -1.112
 -1.049  -1.043  -1.020  -0.984  -0.961  -0.960  -0.895  -0.876
 -0.875  -0.874  -0.871  -0.850  -0.833  -0.804  -0.771  -0.762
 -0.751  -0.727  -0.684  -0.680  -0.676  -0.657  -0.654  -0.652
 -0.647  -0.632  -0.612  -0.609  -0.603  -0.595  -0.586  -0.581
 -0.573  -0.566  -0.559  -0.547  -0.541  -0.537  -0.536  -0.533
 -0.523  -0.521  -0.500  -0.497  -0.496  -0.493  -0.484  -0.481
 -0.478  -0.443  -0.404  -0.403

 Beta MOs
 -- Occupied --
-14.878 -10.650 -10.643 -10.611 -10.609 -10.607 -10.607 -10.606
-10.603 -10.602 -10.599 -10.592 -10.586 -10.578 -10.575 -10.531
-10.530 -10.530 -10.529 -10.529 -10.526  -1.271  -1.109  -1.105
 -1.043  -1.040  -1.016  -0.980  -0.961  -0.952  -0.892  -0.876
 -0.874  -0.872  -0.869  -0.845  -0.831  -0.801  -0.768  -0.760
 -0.749  -0.725  -0.682  -0.674  -0.655  -0.654  -0.653  -0.651
 -0.645  -0.631  -0.608  -0.605  -0.602  -0.594  -0.585  -0.580
 -0.564  -0.558  -0.555  -0.546  -0.536  -0.535  -0.532  -0.523
 -0.521  -0.513  -0.498  -0.495  -0.491  -0.488  -0.483  -0.480
 -0.468  -0.420  -0.401

          Ground-State Mulliken Net Atomic Charges

     Atom                 Charge (a.u.)    Spin (a.u.)
  --------------------------------------------------------
      1 H                     0.407409      -0.015846
      2 N                    -0.716733       0.334244
      3 C                     0.340174      -0.088572
      4 C                     0.181704       0.025656
      5 C                     0.194333       0.135287
      6 C                     0.348799      -0.055133
      7 C                    -0.446070      -0.060278
      8 C                     0.235258       0.311059
      9 C                    -0.281957      -0.143572
     10 C                    -0.223203       0.189355
     11 C                    -0.212351       0.229025
     12 C                    -0.321018      -0.135100
     13 C                     0.242960       0.228969
     14 C                    -0.412666       0.046015
     15 H                     0.251706       0.002275
     16 C                    -0.211232      -0.022240
     17 H                     0.261303       0.006142
     18 H                     0.266476      -0.010312
     19 H                     0.265724      -0.012196
     20 H                     0.270132       0.005529
     21 C                    -0.207116      -0.016697
     22 H                     0.243262      -0.002963
     23 C                    -0.656237       0.000240
     24 C                    -0.610530       0.008724
     25 C                    -0.610426       0.008709
     26 C                    -0.657860       0.000661
     27 C                    -0.607515       0.011740
     28 H                     0.227863       0.000086
     29 H                     0.260913      -0.000443
     30 H                     0.230240       0.000086
     31 H                     0.236485      -0.000440
     32 H                     0.226338      -0.000603
     33 H                     0.248435       0.003081
     34 C                    -0.610080       0.010940
     35 H                     0.239694      -0.000369
     36 H                     0.217396      -0.000416
     37 H                     0.248416       0.003148
     38 H                     0.232685       0.000145
     39 H                     0.256624      -0.000289
     40 H                     0.232788       0.000145
     41 H                     0.239971      -0.000363
     42 H                     0.248276       0.003183
     43 H                     0.217712      -0.000417
     44 H                     0.237481      -0.000407
     45 H                     0.248674       0.002790
     46 H                     0.225763      -0.000577
  --------------------------------------------------------
  Sum of atomic charges =     1.000000

                    Cartesian Multipole Moments
 -----------------------------------------------------------------
    Charge (ESU x 10^10)
                 4.8032
    Dipole Moment (Debye)
         X      10.9561      Y     -11.3380      Z      20.1262
       Tot      25.5666
    Quadrupole Moments (Debye-Ang)
        XX     -77.2269     XY     -39.2407     YY     -54.8993
        XZ      58.8609     YZ     -23.4953     ZZ     -13.4106

 Total job time:  3924.45s(wall), 14091.10s(cpu)
        *  Thank you very much for using Q-Chem.  Have a nice day.  *
