 Q-Chem 5.1, Q-Chem, Inc., Pleasanton, CA (2018)
 Q-Chem 5.1.1 for Intel X86 EM64T Linux

User input:
--------------------------------------------------------------
$rem
threads 4
jobtype opt
method PBEh-3c
basis def2-mSVP
mem_static      1024
mem_total       4000
sym_ignore      true
unrestricted true
scf_algorithm	diis
scf_max_cycles	250
solvent_method  pcm
geom_opt_tol_energy 25
geom_opt_tol_gradient 75
$end

$pcm
theory  iefpcm
$end

$solvent
dielectric      2.38
$end

$molecule
read DPTZ_kat.mol
$end
--------------------------------------------------------------

   20    -913.8351920013      7.68e-09  Convergence criterion met
 Total energy in the final basis set =     -913.8351920013
   16    -913.8495713449      8.75e-09  Convergence criterion met
 Total energy in the final basis set =     -913.8495713449
   16    -913.8529872073      6.82e-09  Convergence criterion met
 Total energy in the final basis set =     -913.8529872073
   15    -913.8545620995      9.46e-09  Convergence criterion met
 Total energy in the final basis set =     -913.8545620995
   16    -913.8553314062      4.19e-09  Convergence criterion met
 Total energy in the final basis set =     -913.8553314062
   16    -913.8555750810      4.15e-09  Convergence criterion met
 Total energy in the final basis set =     -913.8555750810
   16    -913.8556043385      2.34e-09  Convergence criterion met
 Total energy in the final basis set =     -913.8556043385
   15    -913.8556067390      6.99e-09  Convergence criterion met
 Total energy in the final basis set =     -913.8556067390

             Standard Nuclear Orientation (Angstroms)
    I     Atom           X                Y                Z
 ----------------------------------------------------------------
    1      H      -3.7929801672     0.1557856090     5.1608039388
    2      N      -3.1670787654     0.3139784626     5.9410202172
    3      C      -2.5914633367    -0.7939873652     6.4829857451
    4      C      -1.7064293059    -0.7049573595     7.5722848310
    5      C      -3.6899276621     2.6155537736     5.6246991128
    6      C      -3.0040255604     1.6105296079     6.3224741195
    7      C      -3.5460011255     3.9267745789     5.9957332667
    8      C      -2.7138444949     4.2742143286     7.0687485203
    9      C      -2.0316150310     3.3021025322     7.7608929808
   10      C      -2.1678734083     1.9595631570     7.3976035748
   11      C      -2.8899605487    -2.0527973752     5.9385644364
   12      C      -2.3185183214    -3.1811487455     6.4661734465
   13      C      -1.4349603001    -3.0905318073     7.5503932927
   14      C      -1.1327317692    -1.8663302545     8.0973381269
   15      H      -4.3311288348     2.3441932188     4.7946240621
   16      H      -4.0793170090     4.6960592634     5.4552397101
   17      H      -2.6062659661     5.3107079120     7.3549588614
   18      H      -1.3879562332     3.5703196811     8.5887589125
   19      H      -3.5741937357    -2.1242747639     5.1017368051
   20      H      -2.5525072080    -4.1473388097     6.0414348340
   21      H      -0.9885682094    -3.9856631342     7.9599832293
   22      H      -0.4509936238    -1.7963377286     8.9352616198
   23      S      -1.2825593833     0.7939852184     8.3088863561
 ----------------------------------------------------------------

   15    -913.8556071307      6.65e-09  Convergence criterion met
 Total energy in the final basis set =     -913.8556071307
 Final energy is   -913.855607130729
 **  OPTIMIZATION CONVERGED  **

                    Orbital Energies (a.u.)
 --------------------------------------------------------------

 Alpha MOs
 -- Occupied --
-89.724 -14.812 -10.607 -10.606 -10.589 -10.589 -10.538 -10.538
-10.538 -10.538 -10.534 -10.533 -10.532 -10.532  -8.363  -6.253
 -6.250  -6.249  -1.207  -1.066  -1.065  -1.004  -0.956  -0.940
 -0.911  -0.869  -0.816  -0.816  -0.770  -0.722  -0.719  -0.702
 -0.636  -0.627  -0.621  -0.614  -0.613  -0.582  -0.580  -0.574
 -0.529  -0.528  -0.514  -0.514  -0.499  -0.489  -0.477  -0.460
 -0.399  -0.394  -0.359  -0.316

 Beta MOs
 -- Occupied --
-89.722 -14.804 -10.607 -10.606 -10.586 -10.586 -10.539 -10.539
-10.538 -10.538 -10.534 -10.533 -10.530 -10.530  -8.361  -6.252
 -6.248  -6.242  -1.194  -1.062  -1.057  -0.999  -0.954  -0.937
 -0.908  -0.859  -0.813  -0.813  -0.768  -0.718  -0.717  -0.699
 -0.634  -0.624  -0.620  -0.612  -0.588  -0.581  -0.579  -0.573
 -0.525  -0.516  -0.512  -0.497  -0.487  -0.482  -0.473  -0.442
 -0.392  -0.375  -0.344

          Ground-State Mulliken Net Atomic Charges

     Atom                 Charge (a.u.)    Spin (a.u.)
  --------------------------------------------------------
      1 H                     0.431488      -0.013698
      2 N                    -0.747927       0.292184
      3 C                     0.501855       0.015468
      4 C                    -0.222568       0.131939
      5 C                    -0.303458       0.039011
      6 C                     0.502467       0.015434
      7 C                    -0.217064      -0.007112
      8 C                    -0.216333       0.125112
      9 C                    -0.234097      -0.084459
     10 C                    -0.222216       0.131364
     11 C                    -0.303330       0.038964
     12 C                    -0.216415      -0.007052
     13 C                    -0.216231       0.125289
     14 C                    -0.234051      -0.084654
     15 H                     0.283184      -0.002881
     16 H                     0.286143      -0.000177
     17 H                     0.286213      -0.006966
     18 H                     0.288651       0.003356
     19 H                     0.283292      -0.002876
     20 H                     0.286186      -0.000184
     21 H                     0.286274      -0.006974
     22 H                     0.288579       0.003367
     23 S                     0.409358       0.295544
  --------------------------------------------------------
  Sum of atomic charges =     1.000000

                    Cartesian Multipole Moments
 -----------------------------------------------------------------
    Charge (ESU x 10^10)
                 4.8032
    Dipole Moment (Debye)
         X     -12.8510      Y       2.1057      Z      31.4978
       Tot      34.0836
    Quadrupole Moments (Debye-Ang)
        XX     -44.4705     XY     -11.8058     YY     -37.6223
        XZ     -69.0269     YZ      14.0776     ZZ     133.0629

 Total job time:  819.13s(wall), 3123.32s(cpu)
        *  Thank you very much for using Q-Chem.  Have a nice day.  *
