 Q-Chem 5.1, Q-Chem, Inc., Pleasanton, CA (2018)
 Q-Chem 5.1.1 for Intel X86 EM64T Linux

User input:
--------------------------------------------------------------
$rem
threads 4
jobtype	opt
method PBEh-3c
basis def2-mSVP
mem_static	1024
mem_total	3000
sym_ignore	true
scf_convergence	9
solvent_method	pcm
$end

$molecule
read DPTZ.mol
$end

$solvent
dielectric	2.38
$end

$pcm
theory iefpcm
$end

--------------------------------------------------------------

   16    -914.0559182277      7.23e-10  Convergence criterion met
 Total energy in the final basis set =     -914.0559182277
   14    -914.0642066544      6.83e-10  Convergence criterion met
 Total energy in the final basis set =     -914.0642066544
   14    -914.0649003396      4.58e-10  Convergence criterion met
 Total energy in the final basis set =     -914.0649003396
   14    -914.0650533260      6.66e-10  Convergence criterion met
 Total energy in the final basis set =     -914.0650533260
   14    -914.0650768673      5.91e-10  Convergence criterion met
 Total energy in the final basis set =     -914.0650768673

             Standard Nuclear Orientation (Angstroms)
    I     Atom           X                Y                Z
 ----------------------------------------------------------------
    1      H      -3.2583362467     0.2176713911     4.7301246532
    2      N      -2.6162305764     0.3793526735     5.4899222213
    3      C      -2.3190801489    -0.7524923743     6.2410523723
    4      C      -1.4451294932    -0.6610747136     7.3249617468
    5      C      -3.6731347335     2.5531535240     5.6363139370
    6      C      -2.7302912752     1.6326700625     6.0818260390
    7      C      -3.7679561144     3.8025954906     6.2289314184
    8      C      -2.9505419863     4.1347968421     7.2982076308
    9      C      -2.0248917535     3.2111344490     7.7634681084
   10      C      -1.8976490159     1.9764871557     7.1471892442
   11      C      -2.8849979240    -1.9862880648     5.9338421586
   12      C      -2.5699382120    -3.1100115679     6.6819925468
   13      C      -1.7165377100    -3.0107977654     7.7698940613
   14      C      -1.1664729955    -1.7788394525     8.0957500901
   15      H      -4.3331965917     2.2897379812     4.8176195572
   16      H      -4.4976210258     4.5109148310     5.8593440440
   17      H      -3.0312359721     5.1038167088     7.7712066225
   18      H      -1.3853758616     3.4541975652     8.6025212812
   19      H      -3.5715255449    -2.0683278651     5.0988495575
   20      H      -3.0080291170    -4.0636645960     6.4183432044
   21      H      -1.4786195433    -3.8826806902     8.3638730609
   22      H      -0.5015648665    -1.6863032955     8.9451782182
   23      S      -0.6125432915     0.8643517105     7.6201882258
 ----------------------------------------------------------------

   14    -914.0650769204      6.30e-10  Convergence criterion met
 Total energy in the final basis set =     -914.0650769204
 Final energy is   -914.065076920383
 **  OPTIMIZATION CONVERGED  **

                    Orbital Energies (a.u.)
 --------------------------------------------------------------

 Alpha MOs
 -- Occupied --
-89.599 -14.674 -10.502 -10.502 -10.482 -10.482 -10.456 -10.456
-10.453 -10.453 -10.452 -10.452 -10.446 -10.446  -8.238  -6.129
 -6.126  -6.120  -1.080  -0.971  -0.958  -0.902  -0.859  -0.848
 -0.822  -0.770  -0.716  -0.710  -0.684  -0.639  -0.615  -0.604
 -0.546  -0.544  -0.528  -0.523  -0.500  -0.499  -0.487  -0.486
 -0.449  -0.434  -0.430  -0.418  -0.401  -0.390  -0.384  -0.349
 -0.305  -0.301  -0.271  -0.228

          Ground-State Mulliken Net Atomic Charges

     Atom                 Charge (a.u.)
  ----------------------------------------
      1 H                     0.373722
      2 N                    -0.765969
      3 C                     0.420954
      4 C                    -0.191880
      5 C                    -0.315126
      6 C                     0.421321
      7 C                    -0.237991
      8 C                    -0.246970
      9 C                    -0.259894
     10 C                    -0.192211
     11 C                    -0.315681
     12 C                    -0.237464
     13 C                    -0.247105
     14 C                    -0.260103
     15 H                     0.235449
     16 H                     0.238645
     17 H                     0.236800
     18 H                     0.248368
     19 H                     0.235297
     20 H                     0.238596
     21 H                     0.236784
     22 H                     0.248259
     23 S                     0.136202
  ----------------------------------------
  Sum of atomic charges =    -0.000000

                    Cartesian Multipole Moments
 -----------------------------------------------------------------
    Charge (ESU x 10^10)
                 0.0000
    Dipole Moment (Debye)
         X      -2.4348      Y      -0.4965      Z      -1.2428
       Tot       2.7783
    Quadrupole Moments (Debye-Ang)
        XX     -76.8442     XY      -1.7729     YY     -75.4801
        XZ      -3.5621     YZ      -2.7441     ZZ     -99.1972

 Total job time:  497.76s(wall), 1885.53s(cpu)
        *  Thank you very much for using Q-Chem.  Have a nice day.  *
