 Q-Chem 5.1, Q-Chem, Inc., Pleasanton, CA (2018)
 Q-Chem 5.1.1 for Intel X86 EM64T Linux

User input:
--------------------------------------------------------------
$rem
threads 4
jobtype opt
method PBEh-3c
basis def2-mSVP
mem_static      1024
mem_total       4000
sym_ignore      true
unrestricted true
scf_algorithm	diis
scf_max_cycles	250
solvent_method  pcm
geom_opt_tol_energy 25
geom_opt_tol_gradient 75
$end

$pcm
theory  iefpcm
$end

$solvent
dielectric      1.0001
$end

$molecule
read DPTZ_kat.mol
$end
--------------------------------------------------------------

   20    -913.7906680555      7.23e-09  Convergence criterion met
 Total energy in the final basis set =     -913.7906680555
   16    -913.8049299341      8.98e-09  Convergence criterion met
 Total energy in the final basis set =     -913.8049299341
   16    -913.8083315514      4.52e-09  Convergence criterion met
 Total energy in the final basis set =     -913.8083315514
   16    -913.8099084436      3.09e-09  Convergence criterion met
 Total energy in the final basis set =     -913.8099084436
   14    -913.8106862497      9.90e-09  Convergence criterion met
 Total energy in the final basis set =     -913.8106862497
   14    -913.8109148755      4.17e-09  Convergence criterion met
 Total energy in the final basis set =     -913.8109148755
   12    -913.8109275555      8.59e-09  Convergence criterion met
 Total energy in the final basis set =     -913.8109275555

             Standard Nuclear Orientation (Angstroms)
    I     Atom           X                Y                Z
 ----------------------------------------------------------------
    1      H      -3.7836646704     0.1548725331     5.1530047094
    2      N      -3.1618819934     0.3141156224     5.9347168943
    3      C      -2.5870700707    -0.7959455281     6.4775611596
    4      C      -1.7052633050    -0.7056586269     7.5693592208
    5      C      -3.6954815563     2.6181433471     5.6285450727
    6      C      -3.0046353133     1.6124542414     6.3193028243
    7      C      -3.5505622497     3.9289585776     6.0010114295
    8      C      -2.7132911524     4.2757535301     7.0701155043
    9      C      -2.0289600943     3.3027798012     7.7578682458
   10      C      -2.1658924948     1.9601893675     7.3930049603
   11      C      -2.8845259681    -2.0550145480     5.9350833778
   12      C      -2.3178720891    -3.1833939944     6.4680753314
   13      C      -1.4390501980    -3.0921687950     7.5560252171
   14      C      -1.1361707558    -1.8673439964     8.0999150127
   15      H      -4.3430025138     2.3536171387     4.8010853828
   16      H      -4.0871981033     4.6987144957     5.4644965465
   17      H      -2.6044142116     5.3120434529     7.3563906570
   18      H      -1.3827172968     3.5709455253     8.5837300409
   19      H      -3.5634749039    -2.1318872339     5.0943558938
   20      H      -2.5522680188    -4.1501452748     6.0448936146
   21      H      -0.9970077770    -3.9873524202     7.9699862500
   22      H      -0.4571899515    -1.7974659748     8.9400759244
   23      S      -1.2793053121     0.7941887592     8.3019967301
 ----------------------------------------------------------------

   10    -913.8109277822      9.04e-09  Convergence criterion met
 Total energy in the final basis set =     -913.8109277822
 Final energy is   -913.810927782246
 **  OPTIMIZATION CONVERGED  **

                    Orbital Energies (a.u.)
 --------------------------------------------------------------

 Alpha MOs
 -- Occupied --
-89.802 -14.891 -10.685 -10.685 -10.666 -10.666 -10.616 -10.616
-10.615 -10.615 -10.610 -10.610 -10.608 -10.608  -8.441  -6.331
 -6.328  -6.327  -1.285  -1.143  -1.142  -1.081  -1.033  -1.017
 -0.988  -0.947  -0.895  -0.893  -0.847  -0.799  -0.797  -0.781
 -0.713  -0.705  -0.698  -0.692  -0.691  -0.660  -0.659  -0.651
 -0.605  -0.604  -0.591  -0.591  -0.576  -0.566  -0.555  -0.536
 -0.475  -0.471  -0.435  -0.393

 Beta MOs
 -- Occupied --
-89.799 -14.884 -10.685 -10.684 -10.664 -10.663 -10.616 -10.616
-10.615 -10.615 -10.610 -10.610 -10.606 -10.606  -8.439  -6.329
 -6.326  -6.320  -1.273  -1.139  -1.134  -1.076  -1.031  -1.013
 -0.985  -0.937  -0.892  -0.891  -0.845  -0.795  -0.794  -0.778
 -0.711  -0.701  -0.697  -0.690  -0.666  -0.659  -0.658  -0.650
 -0.601  -0.592  -0.589  -0.575  -0.565  -0.560  -0.551  -0.518
 -0.469  -0.450  -0.421

          Ground-State Mulliken Net Atomic Charges

     Atom                 Charge (a.u.)    Spin (a.u.)
  --------------------------------------------------------
      1 H                     0.410859      -0.013510
      2 N                    -0.755076       0.279077
      3 C                     0.504858       0.025864
      4 C                    -0.223295       0.126352
      5 C                    -0.298283       0.027206
      6 C                     0.505104       0.025711
      7 C                    -0.206048       0.004164
      8 C                    -0.206617       0.117133
      9 C                    -0.226316      -0.079395
     10 C                    -0.223521       0.125784
     11 C                    -0.298737       0.027203
     12 C                    -0.205534       0.004204
     13 C                    -0.206619       0.117425
     14 C                    -0.226330      -0.079651
     15 H                     0.268883      -0.002314
     16 H                     0.283936      -0.000742
     17 H                     0.284219      -0.006536
     18 H                     0.280849       0.003099
     19 H                     0.268933      -0.002313
     20 H                     0.283932      -0.000748
     21 H                     0.284295      -0.006550
     22 H                     0.280849       0.003111
     23 S                     0.419657       0.305428
  --------------------------------------------------------
  Sum of atomic charges =     1.000000

                    Cartesian Multipole Moments
 -----------------------------------------------------------------
    Charge (ESU x 10^10)
                 4.8032
    Dipole Moment (Debye)
         X     -12.5811      Y       2.1733      Z      31.8263
       Tot      34.2917
    Quadrupole Moments (Debye-Ang)
        XX     -45.9555     XY     -12.2471     YY     -35.5386
        XZ     -68.3754     YZ      14.4637     ZZ     137.2083

 Total job time:  781.72s(wall), 2975.74s(cpu)
        *  Thank you very much for using Q-Chem.  Have a nice day.  *
