 Q-Chem 5.1, Q-Chem, Inc., Pleasanton, CA (2018)
 Q-Chem 5.1.1 for Intel X86 EM64T Linux

User input:
--------------------------------------------------------------
$molecule
read DPTZ.mol
$end

$rem
threads 4
jobtype	opt
method PBEh-3c
basis def2-mSVP
mem_static	512
mem_total	3000
sym_ignore	true
$end

--------------------------------------------------------------

   14    -914.0491690268      7.79e-09  Convergence criterion met
 Total energy in the final basis set =     -914.0491690268
   12    -914.0577027232      7.88e-09  Convergence criterion met
 Total energy in the final basis set =     -914.0577027232
   11    -914.0584113528      5.39e-09  Convergence criterion met
 Total energy in the final basis set =     -914.0584113528
   11    -914.0585677164      6.43e-09  Convergence criterion met
 Total energy in the final basis set =     -914.0585677164
    9    -914.0585910400      7.39e-09  Convergence criterion met
 Total energy in the final basis set =     -914.0585910400

             Standard Nuclear Orientation (Angstroms)
    I     Atom           X                Y                Z
 ----------------------------------------------------------------
    1      H      -3.2507442400     0.2180054472     4.7266001256
    2      N      -2.6154025395     0.3793638694     5.4906255136
    3      C      -2.3194051050    -0.7530939072     6.2415232893
    4      C      -1.4446967459    -0.6599279598     7.3241824647
    5      C      -3.6723525575     2.5536817596     5.6363484161
    6      C      -2.7304426109     1.6333419743     6.0813472561
    7      C      -3.7673785107     3.8028033065     6.2288024919
    8      C      -2.9509382828     4.1332319181     7.2980261906
    9      C      -2.0265601361     3.2088257438     7.7630614373
   10      C      -1.8976466980     1.9750940294     7.1467996760
   11      C      -2.8865443209    -1.9857780924     5.9363683318
   12      C      -2.5704036652    -3.1096407083     6.6832053250
   13      C      -1.7156333568    -3.0097859133     7.7686621556
   14      C      -1.1663864721    -1.7777504981     8.0937807226
   15      H      -4.3334087431     2.2922375637     4.8175483384
   16      H      -4.4963792804     4.5115142793     5.8592281438
   17      H      -3.0318343426     5.1016728186     7.7717528069
   18      H      -1.3885025828     3.4496456587     8.6035755560
   19      H      -3.5760025090    -2.0690222536     5.1037617816
   20      H      -3.0088262712    -4.0631977212     6.4205195277
   21      H      -1.4767303885    -3.8814175994     8.3622719603
   22      H      -0.5021069746    -1.6838607702     8.9432674906
   23      S      -0.6125736662     0.8644570550     7.6193409987
 ----------------------------------------------------------------

    9    -914.0585908099      6.42e-09  Convergence criterion met
 Total energy in the final basis set =     -914.0585908099
 Final energy is   -914.058590809891
 **  OPTIMIZATION CONVERGED  **

                    Orbital Energies (a.u.)
 --------------------------------------------------------------

 Alpha MOs
 -- Occupied --
-89.596 -14.675 -10.502 -10.502 -10.481 -10.481 -10.456 -10.456
-10.454 -10.454 -10.453 -10.453 -10.446 -10.446  -8.235  -6.126
 -6.123  -6.117  -1.081  -0.971  -0.958  -0.902  -0.859  -0.848
 -0.822  -0.770  -0.717  -0.711  -0.685  -0.640  -0.616  -0.606
 -0.547  -0.545  -0.528  -0.524  -0.501  -0.500  -0.487  -0.486
 -0.450  -0.433  -0.431  -0.419  -0.402  -0.389  -0.383  -0.347
 -0.305  -0.300  -0.270  -0.227

          Ground-State Mulliken Net Atomic Charges

     Atom                 Charge (a.u.)
  ----------------------------------------
      1 H                     0.353109
      2 N                    -0.764830
      3 C                     0.432087
      4 C                    -0.186752
      5 C                    -0.303489
      6 C                     0.432310
      7 C                    -0.223948
      8 C                    -0.231098
      9 C                    -0.249133
     10 C                    -0.187333
     11 C                    -0.304147
     12 C                    -0.223503
     13 C                    -0.231101
     14 C                    -0.249439
     15 H                     0.213344
     16 H                     0.222769
     17 H                     0.221587
     18 H                     0.233933
     19 H                     0.213201
     20 H                     0.222691
     21 H                     0.221568
     22 H                     0.233792
     23 S                     0.154383
  ----------------------------------------
  Sum of atomic charges =    -0.000000

                    Cartesian Multipole Moments
 -----------------------------------------------------------------
    Charge (ESU x 10^10)
                -0.0000
    Dipole Moment (Debye)
         X      -2.0459      Y      -0.4136      Z      -0.9946
       Tot       2.3122
    Quadrupole Moments (Debye-Ang)
        XX     -78.8563     XY      -1.6005     YY     -76.8027
        XZ      -2.1485     YZ      -2.1258     ZZ     -96.5360

 Total job time:  226.66s(wall), 906.67s(cpu)
        *  Thank you very much for using Q-Chem.  Have a nice day.  *
