 Q-Chem 5.1, Q-Chem, Inc., Pleasanton, CA (2018)
 Q-Chem 5.1.1 for Intel X86 EM64T Linux

User input:
--------------------------------------------------------------
$rem
threads 4
jobtype	opt
method PBEh-3c
basis def2-mSVP
mem_static	1024
mem_total	3000
sym_ignore	true
scf_convergence	9
solvent_method	pcm
$end

$molecule
read NPh2.mol
$end

$solvent
dielectric	2.38
$end

$pcm
theory iefpcm
$end

--------------------------------------------------------------

   15    -517.5009770281      9.86e-10  Convergence criterion met
 Total energy in the final basis set =     -517.5009770281
   14    -517.5065058889      7.57e-10  Convergence criterion met
 Total energy in the final basis set =     -517.5065058889
   14    -517.5076784914      8.24e-10  Convergence criterion met
 Total energy in the final basis set =     -517.5076784914
   14    -517.5081084751      4.83e-10  Convergence criterion met
 Total energy in the final basis set =     -517.5081084751
   14    -517.5082506914      3.93e-10  Convergence criterion met
 Total energy in the final basis set =     -517.5082506914
   13    -517.5082567394      6.77e-10  Convergence criterion met
 Total energy in the final basis set =     -517.5082567394
   14    -517.5082614135      4.23e-10  Convergence criterion met
 Total energy in the final basis set =     -517.5082614135
   13    -517.5082635390      9.66e-10  Convergence criterion met
 Total energy in the final basis set =     -517.5082635390
   13    -517.5082658233      9.16e-10  Convergence criterion met
 Total energy in the final basis set =     -517.5082658233

             Standard Nuclear Orientation (Angstroms)
    I     Atom           X                Y                Z
 ----------------------------------------------------------------
    1      N       0.0848919473     0.3535786262     0.2190075133
    2      C      -0.0420023662     0.2603618934     1.5957180486
    3      C       0.9279738631     0.7333043313     2.4832281611
    4      H       1.8287600837     1.2018077400     2.1102551551
    5      C       0.7561671895     0.5785823327     3.8497976031
    6      H       1.5209772143     0.9522423611     4.5187376529
    7      C      -0.3621048874    -0.0611321340     4.3643721826
    8      H      -0.4849833875    -0.1817113182     5.4321180772
    9      C      -1.3175972382    -0.5493825558     3.4839101868
   10      H      -2.1973585420    -1.0548388536     3.8613977041
   11      C      -1.1672220767    -0.3844025286     2.1184150767
   12      H      -1.9312601832    -0.7545019958     1.4440814389
   13      C       0.8193339733     1.2620889474    -0.5256330952
   14      C       1.2359498725     0.8923632908    -1.8080462686
   15      H       1.0160537792    -0.1039281985    -2.1742562982
   16      C       1.9299273497     1.7804967355    -2.6106629199
   17      H       2.2381928838     1.4687596558    -3.6005092315
   18      C       2.2426800853     3.0521594553    -2.1514471805
   19      H       2.7947654430     3.7425138731    -2.7747009223
   20      C       1.8287056297     3.4242323278    -0.8806067004
   21      H       2.0475807588     4.4175228146    -0.5097855462
   22      C       1.1161484299     2.5503366181    -0.0746207701
   23      H       0.7725638062     2.8811637295     0.8960947716
   24      H      -0.4054436281    -0.3470171480    -0.3111646392
 ----------------------------------------------------------------

   13    -517.5082662971      8.93e-10  Convergence criterion met
 Total energy in the final basis set =     -517.5082662971
 Final energy is   -517.508266297075
 **  OPTIMIZATION CONVERGED  **

                    Orbital Energies (a.u.)
 --------------------------------------------------------------

 Alpha MOs
 -- Occupied --
-14.663 -10.495 -10.494 -10.448 -10.448 -10.447 -10.447 -10.444
-10.444 -10.442 -10.442 -10.438 -10.438  -1.062  -0.960  -0.938
 -0.852  -0.842  -0.835  -0.803  -0.704  -0.703  -0.677  -0.658
 -0.606  -0.597  -0.564  -0.542  -0.518  -0.510  -0.494  -0.490
 -0.481  -0.480  -0.454  -0.426  -0.423  -0.410  -0.398  -0.397
 -0.372  -0.298  -0.297  -0.295  -0.230

          Ground-State Mulliken Net Atomic Charges

     Atom                 Charge (a.u.)
  ----------------------------------------
      1 N                    -0.800862
      2 C                     0.377842
      3 C                    -0.313946
      4 H                     0.260953
      5 C                    -0.226003
      6 H                     0.234038
      7 C                    -0.261662
      8 H                     0.230172
      9 C                    -0.222163
     10 H                     0.233354
     11 C                    -0.331371
     12 H                     0.232508
     13 C                     0.379231
     14 C                    -0.331718
     15 H                     0.232283
     16 C                    -0.221833
     17 H                     0.233362
     18 C                    -0.261643
     19 H                     0.230239
     20 C                    -0.226256
     21 H                     0.234048
     22 C                    -0.314336
     23 H                     0.260821
     24 H                     0.372944
  ----------------------------------------
  Sum of atomic charges =     0.000000

                    Cartesian Multipole Moments
 -----------------------------------------------------------------
    Charge (ESU x 10^10)
                 0.0000
    Dipole Moment (Debye)
         X      -0.5113      Y      -0.7544      Z      -0.5729
       Tot       1.0764
    Quadrupole Moments (Debye-Ang)
        XX     -75.0861     XY       6.7213     YY     -74.2807
        XZ      -1.7518     YZ       1.9850     ZZ     -68.9476

 Total job time:  687.00s(wall), 2584.82s(cpu)
        *  Thank you very much for using Q-Chem.  Have a nice day.  *
