 Q-Chem 5.1, Q-Chem, Inc., Pleasanton, CA (2018)
 Q-Chem 5.1.1 for Intel X86 EM64T Linux

User input:
--------------------------------------------------------------
$molecule
read NPh2.mol
$end

$rem
threads 4
jobtype	opt
method PBEh-3c
basis def2-mSVP
mem_static	512
mem_total	3000
sym_ignore	true
$end

--------------------------------------------------------------

   14    -517.4952200348      4.59e-09  Convergence criterion met
 Total energy in the final basis set =     -517.4952200348
   12    -517.5008890961      5.14e-09  Convergence criterion met
 Total energy in the final basis set =     -517.5008890961
   12    -517.5019625882      3.86e-09  Convergence criterion met
 Total energy in the final basis set =     -517.5019625882
   12    -517.5023809212      5.57e-09  Convergence criterion met
 Total energy in the final basis set =     -517.5023809212
   10    -517.5024923505      5.93e-09  Convergence criterion met
 Total energy in the final basis set =     -517.5024923505
   10    -517.5024983338      6.68e-09  Convergence criterion met
 Total energy in the final basis set =     -517.5024983338
    9    -517.5025022154      7.44e-09  Convergence criterion met
 Total energy in the final basis set =     -517.5025022154
    9    -517.5025043349      5.67e-09  Convergence criterion met
 Total energy in the final basis set =     -517.5025043349
    9    -517.5025070609      9.77e-09  Convergence criterion met
 Total energy in the final basis set =     -517.5025070609

             Standard Nuclear Orientation (Angstroms)
    I     Atom           X                Y                Z
 ----------------------------------------------------------------
    1      N       0.0780377228     0.3517144818     0.2152035603
    2      C      -0.0450142345     0.2578429573     1.5928015007
    3      C       0.9346998281     0.7204235389     2.4738066456
    4      H       1.8375314692     1.1784608940     2.0929754559
    5      C       0.7687440258     0.5678653631     3.8405090232
    6      H       1.5408894271     0.9329638638     4.5054349260
    7      C      -0.3528201621    -0.0599354996     4.3609440692
    8      H      -0.4707293402    -0.1795874536     5.4291181974
    9      C      -1.3182526519    -0.5371993284     3.4868526398
   10      H      -2.2013090859    -1.0324083638     3.8696055185
   11      C      -1.1740667227    -0.3729669437     2.1210956885
   12      H      -1.9483808324    -0.7311102884     1.4520729611
   13      C       0.8143565374     1.2605862444    -0.5284435035
   14      C       1.2484139965     0.8888031860    -1.8031235280
   15      H       1.0441458509    -0.1117507240    -2.1668790759
   16      C       1.9436768691     1.7791736852    -2.6014125586
   17      H       2.2658942283     1.4666816775    -3.5863292064
   18      C       2.2412776817     3.0537594985    -2.1431537111
   19      H       2.7947481252     3.7459854156    -2.7627063377
   20      C       1.8114205387     3.4271815236    -0.8786016764
   21      H       2.0192734731     4.4232617083    -0.5094785476
   22      C       1.0963455149     2.5515531207    -0.0781934261
   23      H       0.7375534918     2.8802121812     0.8876975939
   24      H      -0.4137357509    -0.3469107386    -0.3140962088
 ----------------------------------------------------------------

    9    -517.5025077046      4.80e-09  Convergence criterion met
 Total energy in the final basis set =     -517.5025077046
 Final energy is   -517.502507704625
 **  OPTIMIZATION CONVERGED  **

                    Orbital Energies (a.u.)
 --------------------------------------------------------------

 Alpha MOs
 -- Occupied --
-14.664 -10.494 -10.494 -10.448 -10.448 -10.447 -10.447 -10.444
-10.444 -10.442 -10.442 -10.438 -10.438  -1.062  -0.960  -0.938
 -0.852  -0.842  -0.835  -0.804  -0.704  -0.704  -0.678  -0.658
 -0.606  -0.599  -0.565  -0.543  -0.518  -0.511  -0.495  -0.491
 -0.482  -0.481  -0.453  -0.425  -0.423  -0.411  -0.399  -0.398
 -0.371  -0.297  -0.296  -0.293  -0.230

          Ground-State Mulliken Net Atomic Charges

     Atom                 Charge (a.u.)
  ----------------------------------------
      1 N                    -0.800907
      2 C                     0.386820
      3 C                    -0.303380
      4 H                     0.252758
      5 C                    -0.210596
      6 H                     0.219520
      7 C                    -0.244934
      8 H                     0.216332
      9 C                    -0.206672
     10 H                     0.218447
     11 C                    -0.319494
     12 H                     0.214103
     13 C                     0.388010
     14 C                    -0.319584
     15 H                     0.213791
     16 C                    -0.206525
     17 H                     0.218564
     18 C                    -0.244678
     19 H                     0.216479
     20 C                    -0.211065
     21 H                     0.219605
     22 C                    -0.303558
     23 H                     0.252643
     24 H                     0.354321
  ----------------------------------------
  Sum of atomic charges =     0.000000

                    Cartesian Multipole Moments
 -----------------------------------------------------------------
    Charge (ESU x 10^10)
                 0.0000
    Dipole Moment (Debye)
         X      -0.4103      Y      -0.6080      Z      -0.4718
       Tot       0.8721
    Quadrupole Moments (Debye-Ang)
        XX     -75.1916     XY       6.3578     YY     -74.4271
        XZ      -1.6977     YZ       1.8511     ZZ     -69.3991

 Total job time:  539.58s(wall), 2158.85s(cpu)
        *  Thank you very much for using Q-Chem.  Have a nice day.  *
