 Q-Chem 5.1, Q-Chem, Inc., Pleasanton, CA (2018)
 Q-Chem 5.1.1 for Intel X86 EM64T Linux

User input:
--------------------------------------------------------------
$rem
threads 4
jobtype opt
method PBEh-3c
basis def2-mSVP
mem_static      1024
mem_total       4000
sym_ignore      true
unrestricted true
scf_algorithm	diis
scf_max_cycles	250
solvent_method  pcm
geom_opt_tol_energy 25
geom_opt_tol_gradient 75
$end

$pcm
theory  iefpcm
$end

$solvent
dielectric      1.0001
$end

$molecule
read NPh2_kat.mol
$end
--------------------------------------------------------------

   18    -517.2281586366      9.14e-09  Convergence criterion met
 Total energy in the final basis set =     -517.2281586366
   15    -517.2366481861      6.83e-09  Convergence criterion met
 Total energy in the final basis set =     -517.2366481861
   16    -517.2392743309      5.65e-09  Convergence criterion met
 Total energy in the final basis set =     -517.2392743309
   15    -517.2401786451      7.81e-09  Convergence criterion met
 Total energy in the final basis set =     -517.2401786451
   13    -517.2403382617      9.04e-09  Convergence criterion met
 Total energy in the final basis set =     -517.2403382617
   11    -517.2403532771      8.24e-09  Convergence criterion met
 Total energy in the final basis set =     -517.2403532771

             Standard Nuclear Orientation (Angstroms)
    I     Atom           X                Y                Z
 ----------------------------------------------------------------
    1      N       0.1115573981     0.3760781909     0.2411441338
    2      C      -0.0232383085     0.2718244574     1.5996873438
    3      C       0.9319565327     0.7911771470     2.4933494148
    4      H       1.8400120877     1.2490777590     2.1265319274
    5      C       0.7375803724     0.6363590615     3.8475439610
    6      H       1.4780102917     1.0152597659     4.5379320467
    7      C      -0.3858158192    -0.0330216043     4.3305344564
    8      H      -0.5252556988    -0.1511437379     5.3961785372
    9      C      -1.3165714429    -0.5747133504     3.4446119089
   10      H      -2.1808852069    -1.1037248382     3.8205914925
   11      C      -1.1370927065    -0.4371581941     2.0886364497
   12      H      -1.8658654611    -0.8484090604     1.3999958840
   13      C       0.8251341786     1.2732314066    -0.5093022895
   14      C       1.1711413915     0.8929985717    -1.8195912600
   15      H       0.8999294426    -0.0880275456    -2.1915970819
   16      C       1.8886928761     1.7561632806    -2.6136815308
   17      H       2.1704498697     1.4573613625    -3.6134877880
   18      C       2.2508846132     3.0123825535    -2.1294923140
   19      H       2.8082213587     3.6921343632    -2.7591099448
   20      C       1.8737020006     3.4062999249    -0.8467655191
   21      H       2.1178630081     4.3981982331    -0.4931905032
   22      C       1.1615990067     2.5533022253    -0.0333473254
   23      H       0.8132429366     2.8916602196     0.9324366957
   24      H      -0.3925527213    -0.3227101921    -0.2939086952
 ----------------------------------------------------------------

   10    -517.2403544009      7.95e-09  Convergence criterion met
 Total energy in the final basis set =     -517.2403544009
 Final energy is   -517.240354400869
 **  OPTIMIZATION CONVERGED  **

                    Orbital Energies (a.u.)
 --------------------------------------------------------------

 Alpha MOs
 -- Occupied --
-14.906 -10.675 -10.674 -10.621 -10.621 -10.621 -10.620 -10.613
-10.612 -10.605 -10.605 -10.605 -10.604  -1.283  -1.134  -1.111
 -1.028  -1.014  -1.005  -0.977  -0.886  -0.882  -0.844  -0.827
 -0.779  -0.778  -0.734  -0.713  -0.698  -0.676  -0.664  -0.658
 -0.651  -0.649  -0.639  -0.595  -0.584  -0.573  -0.567  -0.562
 -0.551  -0.468  -0.464  -0.461  -0.421

 Beta MOs
 -- Occupied --
-14.895 -10.676 -10.676 -10.618 -10.618 -10.618 -10.617 -10.609
-10.608 -10.607 -10.607 -10.607 -10.606  -1.264  -1.129  -1.104
 -1.024  -1.011  -1.002  -0.965  -0.879  -0.879  -0.841  -0.824
 -0.776  -0.775  -0.730  -0.708  -0.684  -0.674  -0.656  -0.656
 -0.648  -0.648  -0.625  -0.582  -0.582  -0.572  -0.561  -0.560
 -0.524  -0.457  -0.454  -0.441

          Ground-State Mulliken Net Atomic Charges

     Atom                 Charge (a.u.)    Spin (a.u.)
  --------------------------------------------------------
      1 N                    -0.683930       0.415563
      2 C                     0.378554      -0.069358
      3 C                    -0.268739       0.197502
      4 H                     0.300314      -0.011069
      5 C                    -0.207304      -0.139450
      6 H                     0.280693       0.006629
      7 C                    -0.198260       0.283689
      8 H                     0.285102      -0.015110
      9 C                    -0.201785      -0.138977
     10 H                     0.282475       0.006329
     11 C                    -0.284846       0.195797
     12 H                     0.270912      -0.010823
     13 C                     0.377424      -0.069660
     14 C                    -0.284606       0.193358
     15 H                     0.270586      -0.010687
     16 C                    -0.201969      -0.137044
     17 H                     0.282247       0.006260
     18 C                    -0.198336       0.278999
     19 H                     0.284845      -0.014861
     20 C                    -0.207799      -0.137563
     21 H                     0.280450       0.006560
     22 C                    -0.269077       0.194725
     23 H                     0.299967      -0.010913
     24 H                     0.413083      -0.019895
  --------------------------------------------------------
  Sum of atomic charges =     1.000000

                    Cartesian Multipole Moments
 -----------------------------------------------------------------
    Charge (ESU x 10^10)
                 4.8032
    Dipole Moment (Debye)
         X       2.3839      Y       4.2975      Z       3.1235
       Tot       5.8231
    Quadrupole Moments (Debye-Ang)
        XX     -61.9912     XY      17.4167     YY     -55.3231
        XZ     -10.0008     YZ      -5.1299     ZZ     -31.0549

 Total job time:  599.73s(wall), 2256.26s(cpu)
        *  Thank you very much for using Q-Chem.  Have a nice day.  *
