 Q-Chem 5.1, Q-Chem, Inc., Pleasanton, CA (2018)
 Q-Chem 5.1.1 for Intel X86 EM64T Linux

User input:
--------------------------------------------------------------
$rem
threads 4
jobtype opt
method PBEh-3c
basis def2-mSVP
mem_static      1024
mem_total       4000
sym_ignore      true
unrestricted true
scf_algorithm	diis
scf_max_cycles	250
solvent_method  pcm
geom_opt_tol_energy 25
geom_opt_tol_gradient 75
$end

$pcm
theory  iefpcm
$end

$solvent
dielectric      2.38
$end

$molecule
read NPh2_kat.mol
$end
--------------------------------------------------------------

   18    -517.2730135613      8.81e-09  Convergence criterion met
 Total energy in the final basis set =     -517.2730135613
   16    -517.2815067413      3.35e-09  Convergence criterion met
 Total energy in the final basis set =     -517.2815067413
   16    -517.2840695709      8.22e-09  Convergence criterion met
 Total energy in the final basis set =     -517.2840695709
   16    -517.2852848765      5.39e-09  Convergence criterion met
 Total energy in the final basis set =     -517.2852848765
   15    -517.2854725156      7.74e-09  Convergence criterion met
 Total energy in the final basis set =     -517.2854725156
   14    -517.2854794278      9.37e-09  Convergence criterion met
 Total energy in the final basis set =     -517.2854794278

             Standard Nuclear Orientation (Angstroms)
    I     Atom           X                Y                Z
 ----------------------------------------------------------------
    1      N       0.1060192254     0.3809339439     0.2413455502
    2      C      -0.0254118669     0.2727861461     1.5981428925
    3      C       0.9254844385     0.7993233039     2.4924326902
    4      H       1.8296013446     1.2659815619     2.1274535767
    5      C       0.7318024291     0.6434900781     3.8468150728
    6      H       1.4688466276     1.0300707892     4.5366250812
    7      C      -0.3862275010    -0.0343373825     4.3300424796
    8      H      -0.5252589566    -0.1520118106     5.3958310871
    9      C      -1.3113972486    -0.5849038095     3.4438261742
   10      H      -2.1707935585    -1.1220484771     3.8196247022
   11      C      -1.1328539949    -0.4470874811     2.0874377728
   12      H      -1.8536105524    -0.8680368740     1.3963650223
   13      C       0.8233859579     1.2773652462    -0.5058665982
   14      C       1.1653959867     0.8948684890    -1.8160955064
   15      H       0.8865171915    -0.0848817968    -2.1846428457
   16      C       1.8857738899     1.7542643498    -2.6126227842
   17      H       2.1634988488     1.4527898286    -3.6128134690
   18      C       2.2543587898     3.0090382766    -2.1306696382
   19      H       2.8133997371     3.6860621798    -2.7617350866
   20      C       1.8817777955     3.4047911276    -0.8475393507
   21      H       2.1321344179     4.3951552918    -0.4938658985
   22      C       1.1672839248     2.5556143874    -0.0312731910
   23      H       0.8262379890     2.8974365294     0.9357880056
   24      H      -0.4032649153    -0.3120638977    -0.2989057393
 ----------------------------------------------------------------

   14    -517.2854804912      9.82e-09  Convergence criterion met
 Total energy in the final basis set =     -517.2854804912
 Final energy is   -517.285480491215
 **  OPTIMIZATION CONVERGED  **

                    Orbital Energies (a.u.)
 --------------------------------------------------------------

 Alpha MOs
 -- Occupied --
-14.826 -10.596 -10.595 -10.543 -10.543 -10.542 -10.542 -10.536
-10.535 -10.528 -10.528 -10.527 -10.527  -1.203  -1.056  -1.033
 -0.950  -0.936  -0.927  -0.899  -0.808  -0.803  -0.766  -0.749
 -0.700  -0.699  -0.655  -0.634  -0.619  -0.597  -0.586  -0.581
 -0.573  -0.571  -0.561  -0.518  -0.507  -0.496  -0.490  -0.484
 -0.473  -0.391  -0.387  -0.384  -0.343

 Beta MOs
 -- Occupied --
-14.814 -10.598 -10.597 -10.540 -10.540 -10.539 -10.539 -10.532
-10.531 -10.530 -10.530 -10.529 -10.529  -1.184  -1.052  -1.027
 -0.946  -0.933  -0.925  -0.887  -0.801  -0.800  -0.763  -0.745
 -0.698  -0.695  -0.651  -0.630  -0.606  -0.596  -0.578  -0.577
 -0.570  -0.569  -0.546  -0.505  -0.505  -0.494  -0.482  -0.482
 -0.447  -0.380  -0.377  -0.365

          Ground-State Mulliken Net Atomic Charges

     Atom                 Charge (a.u.)    Spin (a.u.)
  --------------------------------------------------------
      1 N                    -0.677594       0.429171
      2 C                     0.376908      -0.078769
      3 C                    -0.272146       0.204925
      4 H                     0.309790      -0.011360
      5 C                    -0.218421      -0.143921
      6 H                     0.283377       0.006837
      7 C                    -0.207060       0.285549
      8 H                     0.286362      -0.015252
      9 C                    -0.213318      -0.144155
     10 H                     0.284141       0.006587
     11 C                    -0.287314       0.203922
     12 H                     0.284476      -0.011113
     13 C                     0.372812      -0.079788
     14 C                    -0.288306       0.197362
     15 H                     0.284021      -0.010752
     16 C                    -0.213666      -0.139097
     17 H                     0.283434       0.006410
     18 C                    -0.207604       0.273424
     19 H                     0.285557      -0.014606
     20 C                    -0.219473      -0.138991
     21 H                     0.282782       0.006658
     22 C                    -0.271489       0.197822
     23 H                     0.308812      -0.010967
     24 H                     0.433917      -0.019895
  --------------------------------------------------------
  Sum of atomic charges =     1.000000

                    Cartesian Multipole Moments
 -----------------------------------------------------------------
    Charge (ESU x 10^10)
                 4.8032
    Dipole Moment (Debye)
         X       2.1638      Y       4.0203      Z       2.9769
       Tot       5.4504
    Quadrupole Moments (Debye-Ang)
        XX     -62.5388     XY      16.9871     YY     -56.1139
        XZ      -9.2314     YZ      -4.2473     ZZ     -33.1652

 Total job time:  530.12s(wall), 1999.57s(cpu)
        *  Thank you very much for using Q-Chem.  Have a nice day.  *
