 Q-Chem 5.1, Q-Chem, Inc., Pleasanton, CA (2018)
 Q-Chem 5.1.1 for Intel X86 EM64T Linux

User input:
--------------------------------------------------------------
$molecule
read PPZ.mol
$end

$rem
threads 4
jobtype	opt
method PBEh-3c
basis def2-mSVP
mem_static	512
mem_total	3000
sym_ignore	true
$end

--------------------------------------------------------------

   15    -802.0712461712      4.84e-09  Convergence criterion met
 Total energy in the final basis set =     -802.0712461712
   13    -802.0834780919      4.99e-09  Convergence criterion met
 Total energy in the final basis set =     -802.0834780919
   12    -802.0866541685      8.25e-09  Convergence criterion met
 Total energy in the final basis set =     -802.0866541685
   12    -802.0876916036      4.69e-09  Convergence criterion met
 Total energy in the final basis set =     -802.0876916036
   12    -802.0882253349      4.28e-09  Convergence criterion met
 Total energy in the final basis set =     -802.0882253349
   11    -802.0883087473      7.61e-09  Convergence criterion met
 Total energy in the final basis set =     -802.0883087473
   10    -802.0883127871      5.15e-09  Convergence criterion met
 Total energy in the final basis set =     -802.0883127871
   10    -802.0883167643      2.74e-09  Convergence criterion met
 Total energy in the final basis set =     -802.0883167643

             Standard Nuclear Orientation (Angstroms)
    I     Atom           X                Y                Z
 ----------------------------------------------------------------
    1      C      -1.1552076086     2.4573820822    -0.4166733749
    2      C       0.2226859441     2.4594925842    -0.4159311027
    3      C      -1.8372918604     1.2858758841    -0.1023658815
    4      C       0.9227465656     1.2955750255    -0.1020213271
    5      C      -1.1511411889     0.1271295521     0.2124879681
    6      C       0.2539064775     0.1252304912     0.2151284872
    7      N      -1.8175867971    -1.0416504085     0.5248415307
    8      N       0.9238262823    -1.0610894853     0.5352514351
    9      C      -1.1708229661    -2.2296759905     0.8009861576
   10      H      -2.8211588525    -1.0387396115     0.5062307126
   11      C       0.2339081236    -2.2465923541     0.8100796667
   12      C      -1.8750348738    -3.3907205055     1.0666829670
   13      C      -1.2118022600    -4.5813987123     1.3481154711
   14      C       0.1657533989    -4.6015639550     1.3612017899
   15      C       0.8834353011    -3.4372324774     1.0924383369
   16      C       2.3388197776    -1.0809269127     0.5105396071
   17      C       3.0555803289    -0.7676586234     1.6568152943
   18      C       4.4418730821    -0.7818404024     1.6292292839
   19      C       5.1101081299    -1.1118772761     0.4591124965
   20      C       4.3916079343    -1.4292555741    -0.6846703083
   21      C       3.0056676033    -1.4136155384    -0.6608439404
   22      H      -1.7117259758     3.3518518561    -0.6605754382
   23      H       0.7725108579     3.3580425987    -0.6592704317
   24      H      -2.9214641773     1.2724610394    -0.1035119515
   25      H      -2.9588561259    -3.3662270838     1.0536590707
   26      H      -1.7812675045    -5.4774739736     1.5539299146
   27      H       0.7021761702    -5.5151795025     1.5780451516
   28      H       1.9638182354    -3.4707029631     1.1055472488
   29      H       2.4322198662    -1.6580809891    -1.5459717905
   30      H       6.1918334375    -1.1212585090     0.4380307926
   31      H       4.9109698913    -1.6872599494    -1.5981537398
   32      H       2.5196554639    -0.5125221669     2.5619990589
   33      H       5.0000325555    -0.5344446704     2.5224055003
   34      H       2.0035147640     1.3111765215    -0.1089386555
 ----------------------------------------------------------------

   10    -802.0883171013      3.38e-09  Convergence criterion met
 Total energy in the final basis set =     -802.0883171013
 Final energy is   -802.088317101320
 **  OPTIMIZATION CONVERGED  **

                    Orbital Energies (a.u.)
 --------------------------------------------------------------

 Alpha MOs
 -- Occupied --
-14.675 -14.666 -10.492 -10.491 -10.491 -10.490 -10.490 -10.458
-10.458 -10.457 -10.457 -10.457 -10.440 -10.440 -10.437 -10.437
-10.436 -10.436 -10.433 -10.433  -1.102  -1.049  -0.964  -0.963
 -0.926  -0.856  -0.851  -0.850  -0.846  -0.814  -0.786  -0.730
 -0.716  -0.698  -0.678  -0.674  -0.632  -0.631  -0.609  -0.599
 -0.560  -0.553  -0.543  -0.528  -0.526  -0.512  -0.496  -0.492
 -0.490  -0.490  -0.489  -0.479  -0.432  -0.430  -0.427  -0.425
 -0.422  -0.406  -0.404  -0.395  -0.395  -0.365  -0.309  -0.303
 -0.294  -0.293  -0.257  -0.191

          Ground-State Mulliken Net Atomic Charges

     Atom                 Charge (a.u.)
  ----------------------------------------
      1 C                    -0.231644
      2 C                    -0.233928
      3 C                    -0.339233
      4 C                    -0.327754
      5 C                     0.376619
      6 C                     0.339893
      7 N                    -0.804020
      8 N                    -0.716741
      9 C                     0.376350
     10 H                     0.353219
     11 C                     0.339028
     12 C                    -0.339221
     13 C                    -0.231596
     14 C                    -0.233547
     15 C                    -0.327922
     16 C                     0.191447
     17 C                    -0.220740
     18 C                    -0.229035
     19 C                    -0.217444
     20 C                    -0.228840
     21 C                    -0.217003
     22 H                     0.212606
     23 H                     0.213233
     24 H                     0.207241
     25 H                     0.207153
     26 H                     0.212595
     27 H                     0.213201
     28 H                     0.247440
     29 H                     0.240745
     30 H                     0.225889
     31 H                     0.227072
     32 H                     0.240457
     33 H                     0.227031
     34 H                     0.247450
  ----------------------------------------
  Sum of atomic charges =     0.000000

                    Cartesian Multipole Moments
 -----------------------------------------------------------------
    Charge (ESU x 10^10)
                 0.0000
    Dipole Moment (Debye)
         X       0.4526      Y      -0.0173      Z      -0.0933
       Tot       0.4624
    Quadrupole Moments (Debye-Ang)
        XX     -90.9123     XY      -0.6142     YY    -114.5793
        XZ       0.3361     YZ      -0.3133     ZZ    -117.1941

 Total job time:  985.74s(wall), 3940.62s(cpu)
        *  Thank you very much for using Q-Chem.  Have a nice day.  *
