 Q-Chem 5.1, Q-Chem, Inc., Pleasanton, CA (2018)
 Q-Chem 5.1.1 for Intel X86 EM64T Linux

User input:
--------------------------------------------------------------
$rem
threads 4
jobtype opt
method PBEh-3c
basis def2-mSVP
mem_static      1024
mem_total       4000
sym_ignore      true
unrestricted true
scf_algorithm	diis
scf_max_cycles	250
solvent_method  pcm
geom_opt_tol_energy 25
geom_opt_tol_gradient 75
$end

$pcm
theory  iefpcm
$end

$solvent
dielectric      1.0001
$end

$molecule
read PPZ_kat.mol
$end
--------------------------------------------------------------

   19    -801.8534632241      9.52e-09  Convergence criterion met
 Total energy in the final basis set =     -801.8534632241
   16    -801.8637204739      6.48e-09  Convergence criterion met
 Total energy in the final basis set =     -801.8637204739
   15    -801.8674474260      8.51e-09  Convergence criterion met
 Total energy in the final basis set =     -801.8674474260
   15    -801.8690746308      6.39e-09  Convergence criterion met
 Total energy in the final basis set =     -801.8690746308
   14    -801.8697652305      9.27e-09  Convergence criterion met
 Total energy in the final basis set =     -801.8697652305
   13    -801.8698942969      6.85e-09  Convergence criterion met
 Total energy in the final basis set =     -801.8698942969
   12    -801.8699062840      6.38e-09  Convergence criterion met
 Total energy in the final basis set =     -801.8699062840
   10    -801.8699110368      8.20e-09  Convergence criterion met
 Total energy in the final basis set =     -801.8699110368

             Standard Nuclear Orientation (Angstroms)
    I     Atom           X                Y                Z
 ----------------------------------------------------------------
    1      C      -1.1658487287     2.4287153190    -0.3935582280
    2      C       0.2339331296     2.4284558861    -0.3991563327
    3      C      -1.8538941796     1.2792536309    -0.0946376385
    4      C       0.9407903993     1.2864057536    -0.1066605340
    5      C      -1.1513542179     0.1104301763     0.2044267774
    6      C       0.2590611070     0.1038310456     0.2027261677
    7      N      -1.8066114211    -1.0486547020     0.4972725045
    8      N       0.9179741744    -1.0694186317     0.4989183078
    9      C      -1.1701955851    -2.2176243210     0.7885027041
   10      H      -2.8167851976    -1.0425274702     0.4931507492
   11      C       0.2399809646    -2.2311178791     0.7928092537
   12      C      -1.8900154546    -3.3804930191     1.0738060016
   13      C      -1.2196059242    -4.5431013911     1.3619612013
   14      C       0.1799852982    -4.5626434092     1.3711236381
   15      C       0.9030754762    -3.4277613686     1.0918574948
   16      C       2.3517678605    -1.0859710152     0.4888959261
   17      C       3.0375828424    -0.7706300673     1.6500358098
   18      C       4.4238049150    -0.7841414954     1.6312474619
   19      C       5.1004771727    -1.1115861514     0.4648819040
   20      C       4.3974670870    -1.4293966443    -0.6885818759
   21      C       3.0112846395    -1.4183205201    -0.6830194340
   22      H      -1.7089587762     3.3333710322    -0.6270671307
   23      H       0.7693802353     3.3361051214    -0.6382236829
   24      H      -2.9369745930     1.2698096861    -0.0913142776
   25      H      -2.9727993014    -3.3587711099     1.0648875449
   26      H      -1.7750030604    -5.4438777039     1.5819059290
   27      H       0.7027656558    -5.4806290858     1.5997496252
   28      H       1.9824865079    -3.4610094185     1.1018939229
   29      H       2.4501002519    -1.6638672462    -1.5758098546
   30      H       6.1817741344    -1.1188330054     0.4545017778
   31      H       4.9272842926    -1.6847535124    -1.5958797528
   32      H       2.4959890247    -0.5169493741     2.5524429687
   33      H       4.9738409502    -0.5377134457     2.5288288737
   34      H       2.0205303207     1.3006443366    -0.1180878025
 ----------------------------------------------------------------

    7    -801.8699101643      5.89e-09  Convergence criterion met
 Total energy in the final basis set =     -801.8699101643
 Final energy is   -801.869910164331
 **  OPTIMIZATION CONVERGED  **

                    Orbital Energies (a.u.)
 --------------------------------------------------------------

 Alpha MOs
 -- Occupied --
-14.875 -14.867 -10.662 -10.661 -10.659 -10.659 -10.625 -10.597
-10.597 -10.593 -10.593 -10.592 -10.592 -10.590 -10.590 -10.582
-10.582 -10.572 -10.572 -10.570  -1.291  -1.239  -1.127  -1.096
 -1.082  -1.016  -1.008  -0.996  -0.974  -0.971  -0.937  -0.886
 -0.886  -0.831  -0.821  -0.819  -0.802  -0.784  -0.763  -0.746
 -0.715  -0.697  -0.688  -0.683  -0.679  -0.656  -0.649  -0.645
 -0.645  -0.641  -0.621  -0.614  -0.594  -0.587  -0.581  -0.564
 -0.560  -0.557  -0.548  -0.535  -0.534  -0.522  -0.456  -0.454
 -0.426  -0.423  -0.420  -0.365

 Beta MOs
 -- Occupied --
-14.867 -14.860 -10.661 -10.660 -10.658 -10.658 -10.626 -10.598
-10.597 -10.593 -10.593 -10.591 -10.591 -10.589 -10.589 -10.581
-10.581 -10.572 -10.572 -10.570  -1.279  -1.224  -1.123  -1.093
 -1.079  -1.014  -1.004  -0.993  -0.972  -0.971  -0.929  -0.885
 -0.883  -0.829  -0.819  -0.817  -0.798  -0.781  -0.761  -0.745
 -0.712  -0.687  -0.682  -0.678  -0.677  -0.648  -0.645  -0.644
 -0.643  -0.640  -0.620  -0.612  -0.580  -0.574  -0.563  -0.562
 -0.559  -0.556  -0.547  -0.534  -0.527  -0.507  -0.452  -0.431
 -0.426  -0.422  -0.406

          Ground-State Mulliken Net Atomic Charges

     Atom                 Charge (a.u.)    Spin (a.u.)
  --------------------------------------------------------
      1 C                    -0.214074       0.069503
      2 C                    -0.214363       0.066214
      3 C                    -0.309271      -0.016071
      4 C                    -0.290299      -0.013643
      5 C                     0.383576       0.072482
      6 C                     0.345524       0.059842
      7 N                    -0.732032       0.262970
      8 N                    -0.638745       0.291102
      9 C                     0.383447       0.073266
     10 H                     0.402788      -0.013285
     11 C                     0.344548       0.060339
     12 C                    -0.309223      -0.016494
     13 C                    -0.213870       0.070081
     14 C                    -0.213933       0.066309
     15 C                    -0.290425      -0.013688
     16 C                     0.144411      -0.020782
     17 C                    -0.217117       0.010975
     18 C                    -0.228595      -0.002135
     19 C                    -0.204856       0.002336
     20 C                    -0.228422      -0.002125
     21 C                    -0.216292       0.011061
     22 H                     0.274552      -0.004291
     23 H                     0.273460      -0.004146
     24 H                     0.262127      -0.000242
     25 H                     0.262130      -0.000220
     26 H                     0.274607      -0.004328
     27 H                     0.273478      -0.004148
     28 H                     0.295824      -0.000338
     29 H                     0.257799      -0.000709
     30 H                     0.263460      -0.000150
     31 H                     0.263021       0.000680
     32 H                     0.257938      -0.000690
     33 H                     0.263083       0.000663
     34 H                     0.295745      -0.000340
  --------------------------------------------------------
  Sum of atomic charges =     1.000000

                    Cartesian Multipole Moments
 -----------------------------------------------------------------
    Charge (ESU x 10^10)
                 4.8032
    Dipole Moment (Debye)
         X       0.8154      Y      -5.1308      Z       2.3114
       Tot       5.6862
    Quadrupole Moments (Debye-Ang)
        XX     -62.1001     XY      -0.9880     YY     -72.6399
        XZ       0.2987     YZ     -10.6239     ZZ    -108.2855

 Total job time:  2200.21s(wall), 7995.73s(cpu)
        *  Thank you very much for using Q-Chem.  Have a nice day.  *
