 Q-Chem 5.1, Q-Chem, Inc., Pleasanton, CA (2018)
 Q-Chem 5.1.1 for Intel X86 EM64T Linux

User input:
--------------------------------------------------------------
$rem
threads 4
jobtype	opt
method PBEh-3c
basis def2-mSVP
mem_static	1024
mem_total	3000
sym_ignore	true
scf_convergence	9
solvent_method	pcm
$end

$molecule
read PPZ.mol
$end

$solvent
dielectric	2.38
$end

$pcm
theory iefpcm
$end

--------------------------------------------------------------

   17    -802.0791773801      2.77e-10  Convergence criterion met
 Total energy in the final basis set =     -802.0791773801
   15    -802.0908165830      3.85e-10  Convergence criterion met
 Total energy in the final basis set =     -802.0908165830
   15    -802.0940838505      3.46e-10  Convergence criterion met
 Total energy in the final basis set =     -802.0940838505
   15    -802.0952114661      2.83e-10  Convergence criterion met
 Total energy in the final basis set =     -802.0952114661
   15    -802.0957782851      2.57e-10  Convergence criterion met
 Total energy in the final basis set =     -802.0957782851
   14    -802.0958629481      7.40e-10  Convergence criterion met
 Total energy in the final basis set =     -802.0958629481
   14    -802.0958686650      4.82e-10  Convergence criterion met
 Total energy in the final basis set =     -802.0958686650
   14    -802.0958723823      4.47e-10  Convergence criterion met
 Total energy in the final basis set =     -802.0958723823

             Standard Nuclear Orientation (Angstroms)
    I     Atom           X                Y                Z
 ----------------------------------------------------------------
    1      C      -1.1566341115     2.4571807663    -0.4186945164
    2      C       0.2220308137     2.4603144916    -0.4166236703
    3      C      -1.8389649901     1.2848476060    -0.1044048100
    4      C       0.9226745864     1.2960276716    -0.1014519975
    5      C      -1.1520250678     0.1259699502     0.2119340483
    6      C       0.2539894268     0.1247859254     0.2154813066
    7      N      -1.8192402429    -1.0415756708     0.5245312298
    8      N       0.9243623623    -1.0605510333     0.5363911335
    9      C      -1.1715809808    -2.2282488789     0.8012401370
   10      H      -2.8240747151    -1.0388077707     0.5050000216
   11      C       0.2340815957    -2.2453544547     0.8107580574
   12      C      -1.8763440945    -3.3898378975     1.0675183025
   13      C      -1.2126257929    -4.5811215693     1.3493119015
   14      C       0.1657162891    -4.6016698195     1.3622967330
   15      C       0.8836992699    -3.4365328374     1.0932728758
   16      C       2.3406009372    -1.0807345137     0.5111319920
   17      C       3.0569691908    -0.7698024984     1.6585262943
   18      C       4.4438137082    -0.7845867551     1.6303154396
   19      C       5.1116707620    -1.1127288757     0.4587427374
   20      C       4.3924743632    -1.4278182341    -0.6859952413
   21      C       3.0060032901    -1.4118511247    -0.6617699442
   22      H      -1.7137853332     3.3513240384    -0.6635593658
   23      H       0.7721274151     3.3591132922    -0.6595712183
   24      H      -2.9230462459     1.2690294283    -0.1063347036
   25      H      -2.9600293534    -3.3633094474     1.0544523632
   26      H      -1.7825524568    -5.4771918959     1.5552835631
   27      H       0.7026514890    -5.5153205915     1.5789855429
   28      H       1.9642126133    -3.4709073310     1.1063707326
   29      H       2.4335228879    -1.6548222233    -1.5482441034
   30      H       6.1935315603    -1.1225336149     0.4372977184
   31      H       4.9113235668    -1.6843984339    -1.6003132022
   32      H       2.5228713013    -0.5157717143     2.5653969806
   33      H       5.0023040194    -0.5390791092     2.5239605299
   34      H       2.0035619363     1.3131931251    -0.1074068682
 ----------------------------------------------------------------

   14    -802.0958716202      4.44e-10  Convergence criterion met
 Total energy in the final basis set =     -802.0958716202
 Final energy is   -802.095871620245
 **  OPTIMIZATION CONVERGED  **

                    Orbital Energies (a.u.)
 --------------------------------------------------------------

 Alpha MOs
 -- Occupied --
-14.677 -14.666 -10.494 -10.493 -10.493 -10.493 -10.492 -10.456
-10.455 -10.455 -10.455 -10.454 -10.441 -10.441 -10.440 -10.440
-10.438 -10.438 -10.436 -10.436  -1.103  -1.050  -0.965  -0.962
 -0.928  -0.855  -0.853  -0.848  -0.848  -0.815  -0.786  -0.731
 -0.717  -0.696  -0.676  -0.676  -0.633  -0.632  -0.607  -0.599
 -0.558  -0.555  -0.542  -0.530  -0.527  -0.510  -0.497  -0.494
 -0.491  -0.490  -0.489  -0.479  -0.431  -0.431  -0.428  -0.425
 -0.421  -0.407  -0.405  -0.396  -0.395  -0.367  -0.309  -0.302
 -0.297  -0.295  -0.260  -0.193

          Ground-State Mulliken Net Atomic Charges

     Atom                 Charge (a.u.)
  ----------------------------------------
      1 C                    -0.248840
      2 C                    -0.251062
      3 C                    -0.352445
      4 C                    -0.339656
      5 C                     0.364246
      6 C                     0.336292
      7 N                    -0.801967
      8 N                    -0.713313
      9 C                     0.364048
     10 H                     0.373289
     11 C                     0.335466
     12 C                    -0.352437
     13 C                    -0.248826
     14 C                    -0.250772
     15 C                    -0.339805
     16 C                     0.190929
     17 C                    -0.231494
     18 C                    -0.242313
     19 C                    -0.230153
     20 C                    -0.242100
     21 C                    -0.227712
     22 H                     0.227212
     23 H                     0.227473
     24 H                     0.227978
     25 H                     0.227830
     26 H                     0.227198
     27 H                     0.227437
     28 H                     0.256727
     29 H                     0.252579
     30 H                     0.240955
     31 H                     0.242138
     32 H                     0.252269
     33 H                     0.242102
     34 H                     0.256727
  ----------------------------------------
  Sum of atomic charges =     0.000000

                    Cartesian Multipole Moments
 -----------------------------------------------------------------
    Charge (ESU x 10^10)
                 0.0000
    Dipole Moment (Debye)
         X       0.3868      Y      -0.0181      Z      -0.1061
       Tot       0.4015
    Quadrupole Moments (Debye-Ang)
        XX     -88.1057     XY      -0.5655     YY    -114.5233
        XZ       0.3208     YZ      -0.2572     ZZ    -116.9679

 Total job time:  2384.43s(wall), 8667.35s(cpu)
        *  Thank you very much for using Q-Chem.  Have a nice day.  *
