 Q-Chem 5.1, Q-Chem, Inc., Pleasanton, CA (2018)
 Q-Chem 5.1.1 for Intel X86 EM64T Linux

User input:
--------------------------------------------------------------
$rem
threads 4
jobtype opt
method PBEh-3c
basis def2-mSVP
mem_static      1024
mem_total       4000
sym_ignore      true
unrestricted true
scf_algorithm	diis
scf_max_cycles	250
solvent_method  pcm
geom_opt_tol_energy 25
geom_opt_tol_gradient 75
$end

$pcm
theory  iefpcm
$end

$solvent
dielectric      2.38
$end

$molecule
read PPZ_kat.mol
$end
--------------------------------------------------------------

   19    -801.8954516082      6.79e-09  Convergence criterion met
 Total energy in the final basis set =     -801.8954516082
   16    -801.9055093602      6.39e-09  Convergence criterion met
 Total energy in the final basis set =     -801.9055093602
   16    -801.9091114910      5.18e-09  Convergence criterion met
 Total energy in the final basis set =     -801.9091114910
   16    -801.9107378082      5.27e-09  Convergence criterion met
 Total energy in the final basis set =     -801.9107378082
   16    -801.9114205136      4.52e-09  Convergence criterion met
 Total energy in the final basis set =     -801.9114205136
   15    -801.9115637305      8.16e-09  Convergence criterion met
 Total energy in the final basis set =     -801.9115637305
   15    -801.9115883630      7.38e-09  Convergence criterion met
 Total energy in the final basis set =     -801.9115883630
   15    -801.9115923414      7.25e-09  Convergence criterion met
 Total energy in the final basis set =     -801.9115923414

             Standard Nuclear Orientation (Angstroms)
    I     Atom           X                Y                Z
 ----------------------------------------------------------------
    1      C      -1.1678816833     2.4255176602    -0.4000518635
    2      C       0.2321316344     2.4276867991    -0.4017959019
    3      C      -1.8545788924     1.2751345347    -0.1016675802
    4      C       0.9407804727     1.2866670974    -0.1070559494
    5      C      -1.1501090634     0.1076340093     0.2012787533
    6      C       0.2602623600     0.1033750174     0.2014890444
    7      N      -1.8054715642    -1.0490069030     0.4958051270
    8      N       0.9196403509    -1.0686479038     0.4997023889
    9      C      -1.1683775451    -2.2147543271     0.7906051680
   10      H      -2.8170416670    -1.0434456859     0.4906399347
   11      C       0.2416967735    -2.2294417383     0.7952649820
   12      C      -1.8897623149    -3.3767523908     1.0790108890
   13      C      -1.2203516519    -4.5396279010     1.3682449250
   14      C       0.1794662465    -4.5604063793     1.3759386056
   15      C       0.9039700789    -3.4261371529     1.0951548275
   16      C       2.3523145438    -1.0854548361     0.4891554713
   17      C       3.0384476189    -0.7842307891     1.6537410713
   18      C       4.4248559475    -0.7988701123     1.6346798697
   19      C       5.1012422024    -1.1131210716     0.4641287557
   20      C       4.3974014453    -1.4167147602    -0.6930535004
   21      C       3.0110377536    -1.4048420485    -0.6866945765
   22      H      -1.7119044221     3.3291217803    -0.6359697638
   23      H       0.7671090797     3.3360586728    -0.6396940228
   24      H      -2.9374428964     1.2588447673    -0.1006106162
   25      H      -2.9722614965    -3.3487005309     1.0705326085
   26      H      -1.7763011972    -5.4397544248     1.5899486029
   27      H       0.7021298079    -5.4785531898     1.6046956562
   28      H       1.9833718933    -3.4623200169     1.1049098573
   29      H       2.4479932579    -1.6395065068    -1.5812568299
   30      H       6.1827487674    -1.1211005165     0.4533985004
   31      H       4.9265269246    -1.6618964469    -1.6037511304
   32      H       2.4959576112    -0.5406585056     2.5583891865
   33      H       4.9751195973    -0.5633713382     2.5352605074
   34      H       2.0205700262     1.3045051377    -0.1165429976
 ----------------------------------------------------------------

   16    -801.9115914312      3.19e-09  Convergence criterion met
 Total energy in the final basis set =     -801.9115914312
 Final energy is   -801.911591431156
 **  OPTIMIZATION CONVERGED  **

                    Orbital Energies (a.u.)
 --------------------------------------------------------------

 Alpha MOs
 -- Occupied --
-14.804 -14.795 -10.590 -10.590 -10.589 -10.589 -10.558 -10.527
-10.527 -10.524 -10.524 -10.523 -10.523 -10.521 -10.521 -10.515
-10.515 -10.507 -10.507 -10.505  -1.220  -1.168  -1.057  -1.028
 -1.014  -0.946  -0.938  -0.928  -0.905  -0.904  -0.868  -0.816
 -0.816  -0.761  -0.755  -0.750  -0.732  -0.714  -0.692  -0.679
 -0.645  -0.628  -0.621  -0.613  -0.610  -0.588  -0.579  -0.576
 -0.575  -0.571  -0.554  -0.547  -0.524  -0.517  -0.511  -0.495
 -0.490  -0.488  -0.480  -0.468  -0.467  -0.454  -0.387  -0.385
 -0.361  -0.357  -0.351  -0.294

 Beta MOs
 -- Occupied --
-14.796 -14.787 -10.590 -10.590 -10.588 -10.588 -10.558 -10.527
-10.527 -10.524 -10.524 -10.522 -10.522 -10.520 -10.520 -10.514
-10.514 -10.507 -10.507 -10.505  -1.208  -1.153  -1.053  -1.026
 -1.010  -0.944  -0.934  -0.925  -0.904  -0.902  -0.860  -0.814
 -0.813  -0.758  -0.753  -0.748  -0.728  -0.711  -0.689  -0.677
 -0.642  -0.620  -0.612  -0.608  -0.608  -0.578  -0.574  -0.574
 -0.574  -0.570  -0.553  -0.545  -0.510  -0.504  -0.495  -0.492
 -0.489  -0.487  -0.480  -0.467  -0.460  -0.438  -0.383  -0.362
 -0.361  -0.356  -0.336

          Ground-State Mulliken Net Atomic Charges

     Atom                 Charge (a.u.)    Spin (a.u.)
  --------------------------------------------------------
      1 C                    -0.225781       0.058985
      2 C                    -0.224815       0.073666
      3 C                    -0.314962      -0.005188
      4 C                    -0.299119      -0.018236
      5 C                     0.378766       0.062888
      6 C                     0.350756       0.064176
      7 N                    -0.724250       0.274119
      8 N                    -0.639474       0.284599
      9 C                     0.378709       0.063695
     10 H                     0.423245      -0.013408
     11 C                     0.349904       0.064670
     12 C                    -0.314895      -0.005562
     13 C                    -0.225619       0.059533
     14 C                    -0.224364       0.073819
     15 C                    -0.299236      -0.018321
     16 C                     0.146763      -0.020383
     17 C                    -0.218557       0.010703
     18 C                    -0.240163      -0.002101
     19 C                    -0.216133       0.002244
     20 C                    -0.239998      -0.002086
     21 C                    -0.217506       0.010797
     22 H                     0.277774      -0.003759
     23 H                     0.277464      -0.004541
     24 H                     0.276161      -0.000795
     25 H                     0.276088      -0.000776
     26 H                     0.277816      -0.003794
     27 H                     0.277488      -0.004546
     28 H                     0.300860      -0.000089
     29 H                     0.267452      -0.000697
     30 H                     0.265219      -0.000144
     31 H                     0.266016       0.000660
     32 H                     0.267521      -0.000676
     33 H                     0.266051       0.000642
     34 H                     0.300820      -0.000094
  --------------------------------------------------------
  Sum of atomic charges =     1.000000

                    Cartesian Multipole Moments
 -----------------------------------------------------------------
    Charge (ESU x 10^10)
                 4.8032
    Dipole Moment (Debye)
         X       0.0769      Y      -5.1257      Z       2.3096
       Tot       5.6225
    Quadrupole Moments (Debye-Ang)
        XX     -62.9831     XY      -0.2106     YY     -74.3968
        XZ      -0.0227     YZ     -10.3662     ZZ    -108.2749

 Total job time:  3801.55s(wall), 14567.88s(cpu)
        *  Thank you very much for using Q-Chem.  Have a nice day.  *
