 Q-Chem 5.1, Q-Chem, Inc., Pleasanton, CA (2018)
 Q-Chem 5.1.1 for Intel X86 EM64T Linux

User input:
--------------------------------------------------------------
$molecule
read PXZ.mol
$end

$rem
threads 4
jobtype	opt
method PBEh-3c
basis def2-mSVP
mem_static	512
mem_total	3000
sym_ignore	true
$end

--------------------------------------------------------------

   14    -591.3678803249      8.92e-09  Convergence criterion met
 Total energy in the final basis set =     -591.3678803249
   12    -591.3749762296      7.61e-09  Convergence criterion met
 Total energy in the final basis set =     -591.3749762296
   11    -591.3752975603      7.65e-09  Convergence criterion met
 Total energy in the final basis set =     -591.3752975603
   10    -591.3753408625      7.67e-09  Convergence criterion met
 Total energy in the final basis set =     -591.3753408625
   10    -591.3753692803      3.61e-09  Convergence criterion met
 Total energy in the final basis set =     -591.3753692803
   11    -591.3754541724      8.51e-09  Convergence criterion met
 Total energy in the final basis set =     -591.3754541724
   12    -591.3754887721      1.74e-09  Convergence criterion met
 Total energy in the final basis set =     -591.3754887721
   10    -591.3755458080      6.69e-09  Convergence criterion met
 Total energy in the final basis set =     -591.3755458080
   11    -591.3755750245      5.48e-09  Convergence criterion met
 Total energy in the final basis set =     -591.3755750245
   10    -591.3755895868      4.21e-09  Convergence criterion met
 Total energy in the final basis set =     -591.3755895868
   10    -591.3755993316      5.49e-09  Convergence criterion met
 Total energy in the final basis set =     -591.3755993316
   10    -591.3756041037      3.87e-09  Convergence criterion met
 Total energy in the final basis set =     -591.3756041037

             Standard Nuclear Orientation (Angstroms)
    I     Atom           X                Y                Z
 ----------------------------------------------------------------
    1      N       1.3911473767    -0.3365108789    -1.9624505258
    2      C       0.9169207577     0.8248280564    -1.3734973754
    3      C       1.8439445408     1.7866145438    -0.9657316079
    4      C       1.4253852953     2.9546977511    -0.3657260636
    5      H       2.1655691308     3.6833504870    -0.0622688406
    6      C       0.0698270793     3.1774317489    -0.1453697378
    7      H      -0.2521939661     4.0911235438     0.3344500130
    8      C      -0.8550818865     2.2307451388    -0.5447394158
    9      H      -1.9115636565     2.3939438531    -0.3805898770
   10      C      -0.4326411959     1.0605366517    -1.1622912691
   11      H      -1.1591234495     0.3199723555    -1.4760810881
   12      C       2.6880152880    -0.3666711392    -2.4491093184
   13      C       3.1379978679    -1.3373143447    -3.3303308722
   14      H       2.4546948517    -2.1065028095    -3.6712148633
   15      C       4.4556917590    -1.3339357258    -3.7699205417
   16      H       4.7905313056    -2.1044021099    -4.4510770616
   17      C       5.3286655343    -0.3523409196    -3.3394436667
   18      H       6.3551853632    -0.3426677763    -3.6783646742
   19      C       4.8814195872     0.6331713009    -2.4655598731
   20      H       5.5470189341     1.4119760248    -2.1170545459
   21      C       3.5776457871     0.6200928228    -2.0194494446
   22      O       3.1834306488     1.5766601795    -1.1275498305
   23      H       0.7184130471    -0.9454987544    -2.3948295199
 ----------------------------------------------------------------

    8    -591.3756042654      7.85e-09  Convergence criterion met
 Total energy in the final basis set =     -591.3756042654
 Final energy is   -591.375604265398
 **  OPTIMIZATION CONVERGED  **

                    Orbital Energies (a.u.)
 --------------------------------------------------------------

 Alpha MOs
 -- Occupied --
-19.545 -14.675 -10.512 -10.512 -10.499 -10.499 -10.452 -10.451
-10.448 -10.448 -10.447 -10.447 -10.444 -10.444  -1.212  -1.072
 -0.975  -0.941  -0.865  -0.856  -0.829  -0.805  -0.731  -0.731
 -0.684  -0.646  -0.643  -0.608  -0.568  -0.551  -0.541  -0.536
 -0.529  -0.503  -0.499  -0.496  -0.456  -0.449  -0.437  -0.434
 -0.419  -0.416  -0.392  -0.380  -0.305  -0.301  -0.275  -0.218

          Ground-State Mulliken Net Atomic Charges

     Atom                 Charge (a.u.)
  ----------------------------------------
      1 N                    -0.771362
      2 C                     0.338709
      3 C                     0.353210
      4 C                    -0.336145
      5 H                     0.237343
      6 C                    -0.236102
      7 H                     0.220161
      8 C                    -0.222319
      9 H                     0.219572
     10 C                    -0.331947
     11 H                     0.214468
     12 C                     0.340285
     13 C                    -0.331789
     14 H                     0.214539
     15 C                    -0.222383
     16 H                     0.219579
     17 C                    -0.236192
     18 H                     0.220190
     19 C                    -0.336134
     20 H                     0.237477
     21 C                     0.351829
     22 O                    -0.497429
     23 H                     0.354439
  ----------------------------------------
  Sum of atomic charges =     0.000000

                    Cartesian Multipole Moments
 -----------------------------------------------------------------
    Charge (ESU x 10^10)
                 0.0000
    Dipole Moment (Debye)
         X      -1.3068      Y      -0.9710      Z      -1.0798
       Tot       1.9536
    Quadrupole Moments (Debye-Ang)
        XX     -75.7968     XY      -0.4014     YY     -75.2672
        XZ      -1.8764     YZ       8.8477     ZZ     -78.5811

 Total job time:  462.23s(wall), 1848.97s(cpu)
        *  Thank you very much for using Q-Chem.  Have a nice day.  *
