 Q-Chem 5.1, Q-Chem, Inc., Pleasanton, CA (2018)
 Q-Chem 5.1.1 for Intel X86 EM64T Linux

User input:
--------------------------------------------------------------
$rem
threads 4
jobtype opt
method PBEh-3c
basis def2-mSVP
mem_static      1024
mem_total       4000
sym_ignore      true
unrestricted true
scf_algorithm	diis
scf_max_cycles	250
solvent_method  pcm
geom_opt_tol_energy 25
geom_opt_tol_gradient 75
$end

$pcm
theory  iefpcm
$end

$solvent
dielectric      1.0001
$end

$molecule
read PXZ_kat.mol
$end
--------------------------------------------------------------

   18    -591.1177461863      9.09e-09  Convergence criterion met
 Total energy in the final basis set =     -591.1177461863
   16    -591.1279455928      5.63e-09  Convergence criterion met
 Total energy in the final basis set =     -591.1279455928
   13    -591.1284980461      6.75e-09  Convergence criterion met
 Total energy in the final basis set =     -591.1284980461
   13    -591.1285587062      6.94e-09  Convergence criterion met
 Total energy in the final basis set =     -591.1285587062
   12    -591.1285723016      6.79e-09  Convergence criterion met
 Total energy in the final basis set =     -591.1285723016
    8    -591.1285727227      9.89e-09  Convergence criterion met
 Total energy in the final basis set =     -591.1285727227

             Standard Nuclear Orientation (Angstroms)
    I     Atom           X                Y                Z
 ----------------------------------------------------------------
    1      N       1.3540782110    -0.1440182916    -2.2362043835
    2      C       0.8953950655     0.9121936702    -1.5084737371
    3      C       1.8267717878     1.8877708939    -1.1087323001
    4      C       1.4226766627     2.9879750568    -0.3683498484
    5      H       2.1506295183     3.7298652184    -0.0695344977
    6      C       0.0914149867     3.1084433419    -0.0310985689
    7      H      -0.2353399323     3.9623994600     0.5453020646
    8      C      -0.8443282852     2.1402819157    -0.4249041557
    9      H      -1.8830514343     2.2545841411    -0.1493062588
   10      C      -0.4520362513     1.0487119475    -1.1574120226
   11      H      -1.1714043205     0.2992965575    -1.4632446531
   12      C       2.6640980590    -0.2768112102    -2.5846991356
   13      C       3.1341601845    -1.3591432511    -3.3362003881
   14      H       2.4490254832    -2.1314866287    -3.6628989237
   15      C       4.4680013223    -1.4255070844    -3.6507069934
   16      H       4.8398151471    -2.2580040815    -4.2309251322
   17      C       5.3520553682    -0.4226835066    -3.2258838102
   18      H       6.3995896715    -0.4905308521    -3.4832581357
   19      C       4.9042823440     0.6497581451    -2.4847765487
   20      H       5.5776192594     1.4283568171    -2.1529905102
   21      C       3.5580348258     0.7235109111    -2.1629350495
   22      O       3.1229063615     1.7694315359    -1.4404125939
   23      H       0.6965059652    -0.8550947061    -2.5305544176
 ----------------------------------------------------------------

    8    -591.1285725448      6.43e-09  Convergence criterion met
 Total energy in the final basis set =     -591.1285725448
 Final energy is   -591.128572544842
 **  OPTIMIZATION CONVERGED  **

                    Orbital Energies (a.u.)
 --------------------------------------------------------------

 Alpha MOs
 -- Occupied --
-19.753 -14.905 -10.700 -10.700 -10.684 -10.684 -10.621 -10.621
-10.614 -10.614 -10.611 -10.611 -10.611 -10.610  -1.423  -1.289
 -1.154  -1.113  -1.045  -1.032  -1.000  -0.984  -0.918  -0.910
 -0.854  -0.835  -0.809  -0.790  -0.744  -0.738  -0.736  -0.706
 -0.700  -0.672  -0.666  -0.664  -0.663  -0.626  -0.609  -0.600
 -0.582  -0.579  -0.565  -0.554  -0.476  -0.474  -0.445  -0.403

 Beta MOs
 -- Occupied --
-19.747 -14.896 -10.698 -10.698 -10.684 -10.684 -10.621 -10.620
-10.612 -10.612 -10.612 -10.612 -10.611 -10.611  -1.412  -1.273
 -1.148  -1.108  -1.043  -1.027  -0.999  -0.973  -0.916  -0.906
 -0.851  -0.831  -0.806  -0.787  -0.741  -0.732  -0.709  -0.704
 -0.698  -0.670  -0.663  -0.662  -0.622  -0.622  -0.599  -0.595
 -0.581  -0.578  -0.563  -0.532  -0.471  -0.449  -0.435

          Ground-State Mulliken Net Atomic Charges

     Atom                 Charge (a.u.)    Spin (a.u.)
  --------------------------------------------------------
      1 N                    -0.704523       0.343379
      2 C                     0.365118       0.023731
      3 C                     0.376945       0.154309
      4 C                    -0.312817      -0.099114
      5 H                     0.294287       0.003851
      6 C                    -0.208652       0.156765
      7 H                     0.287498      -0.008678
      8 C                    -0.206368      -0.006776
      9 H                     0.285064      -0.000349
     10 C                    -0.301454       0.042135
     11 H                     0.273342      -0.003325
     12 C                     0.366409       0.023246
     13 C                    -0.301048       0.042012
     14 H                     0.273391      -0.003320
     15 C                    -0.206486      -0.006665
     16 H                     0.285044      -0.000354
     17 C                    -0.208687       0.156258
     18 H                     0.287462      -0.008646
     19 C                    -0.312912      -0.098843
     20 H                     0.294296       0.003839
     21 C                     0.375707       0.154306
     22 O                    -0.416948       0.149022
     23 H                     0.415335      -0.016781
  --------------------------------------------------------
  Sum of atomic charges =     1.000000

                    Cartesian Multipole Moments
 -----------------------------------------------------------------
    Charge (ESU x 10^10)
                 4.8032
    Dipole Moment (Debye)
         X       9.1937      Y       2.2475      Z      -9.5539
       Tot      13.4481
    Quadrupole Moments (Debye-Ang)
        XX     -24.8179     XY      -2.7555     YY     -55.5063
        XZ     -30.9283     YZ      13.2759     ZZ     -51.4268

 Total job time:  508.61s(wall), 1909.61s(cpu)
        *  Thank you very much for using Q-Chem.  Have a nice day.  *
