 Q-Chem 5.1, Q-Chem, Inc., Pleasanton, CA (2018)
 Q-Chem 5.1.1 for Intel X86 EM64T Linux

User input:
--------------------------------------------------------------
$rem
threads 4
jobtype opt
method PBEh-3c
basis def2-mSVP
mem_static      1024
mem_total       4000
sym_ignore      true
unrestricted true
scf_algorithm	diis
scf_max_cycles	250
solvent_method  pcm
geom_opt_tol_energy 25
geom_opt_tol_gradient 75
$end

$pcm
theory  iefpcm
$end

$solvent
dielectric      2.38
$end

$molecule
read PXZ_kat.mol
$end
--------------------------------------------------------------

   18    -591.1628989996      7.90e-09  Convergence criterion met
 Total energy in the final basis set =     -591.1628989996
   16    -591.1733128118      6.62e-09  Convergence criterion met
 Total energy in the final basis set =     -591.1733128118
   15    -591.1738945061      5.08e-09  Convergence criterion met
 Total energy in the final basis set =     -591.1738945061
   15    -591.1739585211      5.99e-09  Convergence criterion met
 Total energy in the final basis set =     -591.1739585211
   15    -591.1739718856      6.18e-09  Convergence criterion met
 Total energy in the final basis set =     -591.1739718856
   15    -591.1739723575      6.03e-09  Convergence criterion met
 Total energy in the final basis set =     -591.1739723575

             Standard Nuclear Orientation (Angstroms)
    I     Atom           X                Y                Z
 ----------------------------------------------------------------
    1      N       1.3552097851    -0.1436116618    -2.2352241344
    2      C       0.8984712903     0.9121202766    -1.5088497253
    3      C       1.8285921427     1.8880787964    -1.1079246424
    4      C       1.4227891895     2.9877780019    -0.3682604210
    5      H       2.1496218695     3.7304935867    -0.0685183056
    6      C       0.0906106961     3.1073151684    -0.0323202024
    7      H      -0.2367539292     3.9611442075     0.5440103590
    8      C      -0.8439887301     2.1387896421    -0.4270655089
    9      H      -1.8830126912     2.2523969177    -0.1523073883
   10      C      -0.4500311609     1.0475526075    -1.1593088926
   11      H      -1.1647201967     0.2951916272    -1.4682768436
   12      C       2.6639407886    -0.2738098897    -2.5821650377
   13      C       3.1320919177    -1.3566179930    -3.3345915550
   14      H       2.4412750801    -2.1247730816    -3.6585895192
   15      C       4.4653364898    -1.4249808782    -3.6508630603
   16      H       4.8352992714    -2.2576134379    -4.2320776153
   17      C       5.3506555025    -0.4235100690    -3.2264526347
   18      H       6.3978439556    -0.4918576928    -3.4851162537
   19      C       4.9046927924     0.6495926365    -2.4841396014
   20      H       5.5797206659     1.4271573621    -2.1532551735
   21      C       3.5591598296     0.7248431069    -2.1607446375
   22      O       3.1258949475     1.7714000749    -1.4372919677
   23      H       0.6982004935    -0.8577793087    -2.5288672387
 ----------------------------------------------------------------

   16    -591.1739722035      5.55e-09  Convergence criterion met
 Total energy in the final basis set =     -591.1739722035
 Final energy is   -591.173972203463
 **  OPTIMIZATION CONVERGED  **

                    Orbital Energies (a.u.)
 --------------------------------------------------------------

 Alpha MOs
 -- Occupied --
-19.675 -14.824 -10.622 -10.622 -10.605 -10.605 -10.543 -10.542
-10.537 -10.537 -10.533 -10.533 -10.533 -10.533  -1.344  -1.208
 -1.075  -1.035  -0.967  -0.954  -0.922  -0.905  -0.839  -0.831
 -0.776  -0.756  -0.731  -0.709  -0.665  -0.659  -0.657  -0.627
 -0.622  -0.594  -0.586  -0.585  -0.584  -0.548  -0.532  -0.522
 -0.504  -0.501  -0.486  -0.477  -0.399  -0.397  -0.368  -0.325

 Beta MOs
 -- Occupied --
-19.669 -14.814 -10.620 -10.620 -10.605 -10.605 -10.542 -10.542
-10.535 -10.535 -10.534 -10.534 -10.533 -10.533  -1.333  -1.192
 -1.070  -1.030  -0.964  -0.949  -0.921  -0.894  -0.838  -0.827
 -0.773  -0.752  -0.727  -0.706  -0.663  -0.653  -0.630  -0.626
 -0.621  -0.592  -0.584  -0.583  -0.545  -0.542  -0.521  -0.517
 -0.503  -0.499  -0.484  -0.455  -0.393  -0.372  -0.358

          Ground-State Mulliken Net Atomic Charges

     Atom                 Charge (a.u.)    Spin (a.u.)
  --------------------------------------------------------
      1 N                    -0.694925       0.357313
      2 C                     0.363395       0.011601
      3 C                     0.377677       0.157895
      4 C                    -0.322138      -0.102820
      5 H                     0.298470       0.004050
      6 C                    -0.217475       0.163385
      7 H                     0.289274      -0.009042
      8 C                    -0.217720      -0.018799
      9 H                     0.286788       0.000254
     10 C                    -0.305317       0.055241
     11 H                     0.286735      -0.003943
     12 C                     0.364731       0.011141
     13 C                    -0.305240       0.055260
     14 H                     0.286574      -0.003950
     15 C                    -0.217829      -0.018834
     16 H                     0.286702       0.000259
     17 C                    -0.217649       0.162983
     18 H                     0.289266      -0.009016
     19 C                    -0.322132      -0.102615
     20 H                     0.298387       0.004042
     21 C                     0.376940       0.157773
     22 O                    -0.421065       0.144714
     23 H                     0.436550      -0.016891
  --------------------------------------------------------
  Sum of atomic charges =     1.000000

                    Cartesian Multipole Moments
 -----------------------------------------------------------------
    Charge (ESU x 10^10)
                 4.8032
    Dipole Moment (Debye)
         X       8.8458      Y       1.8693      Z      -9.7088
       Tot      13.2666
    Quadrupole Moments (Debye-Ang)
        XX     -27.2245     XY      -2.7058     YY     -56.2781
        XZ     -29.7857     YZ      13.5730     ZZ     -51.2985

 Total job time:  604.96s(wall), 2304.11s(cpu)
        *  Thank you very much for using Q-Chem.  Have a nice day.  *
