 Q-Chem 5.1, Q-Chem, Inc., Pleasanton, CA (2018)
 Q-Chem 5.1.1 for Intel X86 EM64T Linux

User input:
--------------------------------------------------------------
$rem
threads 4
jobtype	opt
method PBEh-3c
basis def2-mSVP
mem_static	1024
mem_total	3000
sym_ignore	true
scf_convergence	9
solvent_method	pcm
$end

$molecule
read PXZ.mol
$end

$solvent
dielectric	2.38
$end

$pcm
theory iefpcm
$end

--------------------------------------------------------------

   16    -591.3741819681      7.81e-10  Convergence criterion met
 Total energy in the final basis set =     -591.3741819681
   15    -591.3810898962      2.88e-10  Convergence criterion met
 Total energy in the final basis set =     -591.3810898962
   14    -591.3814216441      7.37e-10  Convergence criterion met
 Total energy in the final basis set =     -591.3814216441
   14    -591.3814674756      5.65e-10  Convergence criterion met
 Total energy in the final basis set =     -591.3814674756
   14    -591.3814970118      5.10e-10  Convergence criterion met
 Total energy in the final basis set =     -591.3814970118
   14    -591.3815901838      8.00e-10  Convergence criterion met
 Total energy in the final basis set =     -591.3815901838
   14    -591.3816140018      8.85e-10  Convergence criterion met
 Total energy in the final basis set =     -591.3816140018
   14    -591.3816825846      5.58e-10  Convergence criterion met
 Total energy in the final basis set =     -591.3816825846
   14    -591.3817197848      7.76e-10  Convergence criterion met
 Total energy in the final basis set =     -591.3817197848
   14    -591.3817338026      5.83e-10  Convergence criterion met
 Total energy in the final basis set =     -591.3817338026
   14    -591.3817428914      5.41e-10  Convergence criterion met
 Total energy in the final basis set =     -591.3817428914
   14    -591.3817466109      5.23e-10  Convergence criterion met
 Total energy in the final basis set =     -591.3817466109

             Standard Nuclear Orientation (Angstroms)
    I     Atom           X                Y                Z
 ----------------------------------------------------------------
    1      N       1.3929274610    -0.3416353268    -1.9540463798
    2      C       0.9183441961     0.8212526429    -1.3700059410
    3      C       1.8446448606     1.7835060345    -0.9601253403
    4      C       1.4267998586     2.9547277234    -0.3647713017
    5      H       2.1662038977     3.6838961945    -0.0593871576
    6      C       0.0700803829     3.1800963347    -0.1497977104
    7      H      -0.2522441323     4.0955246455     0.3269668330
    8      C      -0.8548630832     2.2329403649    -0.5509396932
    9      H      -1.9119533303     2.3982118857    -0.3912746456
   10      C      -0.4325930328     1.0602128853    -1.1651013679
   11      H      -1.1581949649     0.3200211657    -1.4814677587
   12      C       2.6878666556    -0.3690392041    -2.4440028317
   13      C       3.1360821924    -1.3365298725    -3.3309711119
   14      H       2.4508247950    -2.1036330031    -3.6723569861
   15      C       4.4531072466    -1.3300427072    -3.7742094688
   16      H       4.7864131606    -2.0979128445    -4.4594161505
   17      C       5.3275177744    -0.3486329814    -3.3434312760
   18      H       6.3531489998    -0.3367170926    -3.6856266705
   19      C       4.8819549588     0.6340274656    -2.4642848666
   20      H       5.5493482560     1.4118017302    -2.1157925792
   21      C       3.5791988673     0.6166164700    -2.0140781682
   22      O       3.1857536270     1.5685147984    -1.1145922035
   23      H       0.7205313528    -0.9579073092    -2.3794872238
 ----------------------------------------------------------------

   14    -591.3817473691      5.05e-10  Convergence criterion met
 Total energy in the final basis set =     -591.3817473691
 Final energy is   -591.381747369134
 **  OPTIMIZATION CONVERGED  **

                    Orbital Energies (a.u.)
 --------------------------------------------------------------

 Alpha MOs
 -- Occupied --
-19.547 -14.673 -10.513 -10.513 -10.499 -10.499 -10.451 -10.451
-10.449 -10.449 -10.447 -10.447 -10.444 -10.444  -1.213  -1.071
 -0.975  -0.941  -0.865  -0.855  -0.829  -0.804  -0.731  -0.730
 -0.683  -0.645  -0.643  -0.606  -0.567  -0.550  -0.541  -0.536
 -0.530  -0.503  -0.498  -0.495  -0.457  -0.449  -0.436  -0.435
 -0.418  -0.416  -0.392  -0.381  -0.306  -0.302  -0.277  -0.219

          Ground-State Mulliken Net Atomic Charges

     Atom                 Charge (a.u.)
  ----------------------------------------
      1 N                    -0.771590
      2 C                     0.329522
      3 C                     0.344796
      4 C                    -0.347762
      5 H                     0.250324
      6 C                    -0.252494
      7 H                     0.235024
      8 C                    -0.237711
      9 H                     0.234843
     10 C                    -0.343140
     11 H                     0.235665
     12 C                     0.331070
     13 C                    -0.343042
     14 H                     0.235674
     15 C                    -0.237733
     16 H                     0.234816
     17 C                    -0.252625
     18 H                     0.235045
     19 C                    -0.347790
     20 H                     0.250405
     21 C                     0.343651
     22 O                    -0.502244
     23 H                     0.375296
  ----------------------------------------
  Sum of atomic charges =    -0.000000

                    Cartesian Multipole Moments
 -----------------------------------------------------------------
    Charge (ESU x 10^10)
                 0.0000
    Dipole Moment (Debye)
         X      -1.5755      Y      -1.2154      Z      -1.2525
       Tot       2.3513
    Quadrupole Moments (Debye-Ang)
        XX     -75.9741     XY      -0.9280     YY     -74.8007
        XZ      -1.9410     YZ       9.6711     ZZ     -77.8195

 Total job time:  1218.25s(wall), 4627.23s(cpu)
        *  Thank you very much for using Q-Chem.  Have a nice day.  *
