                         Program Version 4.0.1 -  RELEASE  -
|  1> %maxcore 1700
|  2> %pal nprocs 4 end
|  3> !PBEh-3c RIJCOSX
|  4>
|  5> *xyzfile 0 1 gsopt.xyz
|  6>
|  7>
|  8>                          ****END OF INPUT****

CARTESIAN COORDINATES (ANGSTROEM)
---------------------------------
  C      2.604341   -1.453144    0.060459
  C      3.552833   -1.120443   -0.936982
  B      4.589421   -2.186968   -1.396422
  C      4.673559   -3.551991   -0.654812
  C      3.711010   -3.889295    0.323813
  B      2.601455   -2.870740    0.704779
  C      5.636590   -4.491814   -1.032658
  C      5.637601   -5.748795   -0.459194
  C      4.655306   -6.095620    0.494407
  C      3.707270   -5.169465    0.884389
  C      1.597335   -0.543698    0.389887
  C      1.525383    0.672857   -0.261803
  C      2.479653    1.014922   -1.244493
  C      3.479405    0.119073   -1.579443
  C      7.504983   -7.230486   -1.550076
  C      8.006634   -8.553599   -1.561802
  C      7.471906   -9.552602   -0.783240
  C      6.380688   -9.275559    0.074240
  C      5.925053   -7.961421    0.080940
  C      6.457112   -6.934022   -0.719268
  C      5.673777  -10.186719    0.895100
  C      4.596058   -9.756444    1.632267
  C      4.150832   -8.413288    1.612559
  C      4.825149   -7.509996    0.833399
  C      1.852132    4.280432   -3.150776
  C      2.576159    3.110872   -2.817075
  C      2.095518    2.306805   -1.818039
  C      0.903049    2.683738   -1.171646
  C      0.153972    3.808483   -1.496581
  C      0.677808    4.627436   -2.525325
  C      0.514323    1.726855   -0.216689
  C     -0.669574    1.903972    0.448768
  C     -1.447246    3.046850    0.148749
  C     -1.061135    3.974774   -0.789555
  C      7.385484   -1.071087   -3.848270
  C      6.644667   -1.241589   -2.677208
  C      5.454819   -1.964501   -2.686366
  C      5.009802   -2.518613   -3.901772
  C      5.745079   -2.338563   -5.058004
  C      6.936807   -1.616415   -5.040964
  C      7.189196   -0.675793   -1.391707
  C      3.724928   -3.300088   -3.954490
  O      7.571118   -1.499277   -6.226514
  C      8.768349   -0.772283   -6.276363
  C      0.637086   -3.559993    3.954775
  C      1.648368   -3.199641    3.083363
  C      1.456157   -3.290537    1.694543
  C      0.231707   -3.754278    1.217120
  C     -0.784965   -4.115130    2.102335
  C     -0.587214   -4.018348    3.470582
  C      2.961798   -2.701752    3.617940
  C     -0.015414   -3.931101   -0.260550
  O     -1.512178   -4.336714    4.400842
  C     -2.772031   -4.773940    3.968664
  H      6.355937   -4.243758   -1.805512
  H      2.936411   -5.439281    1.598384
  H      0.848619   -0.817822    1.124904
  H      4.184817    0.353572   -2.368906
  H      7.945976   -6.487099   -2.202130
  H      8.833644   -8.786722   -2.219671
  H      7.877772  -10.555467   -0.837486
  H      5.972303  -11.227329    0.932781
  H      4.060166  -10.469470    2.245226
  H      3.285104   -8.130546    2.198485
  H      2.231897    4.913542   -3.941955
  H      3.478360    2.866235   -3.363649
  H      0.147885    5.521369   -2.830443
  H     -1.027354    1.189049    1.179426
  H     -2.384951    3.186231    0.670752
  H     -1.696277    4.827397   -0.996333
  H      8.305846   -0.501809   -3.801568
  H      5.398536   -2.751247   -5.998274
  H      7.706056    0.266460   -1.592503
  C      8.147770   -1.638240   -0.693449
  H      6.368812   -0.426356   -0.712483
  H      9.105048   -0.797094   -7.310784
  H      9.549313   -1.211895   -5.647037
  H      8.632658    0.273241   -5.980616
  H      0.779693   -3.481158    5.025946
  H     -1.725695   -4.463509    1.693080
  H      0.626387   -3.260593   -0.838815
  H     -1.040228   -3.632999   -0.499391
  C      0.211087   -5.369555   -0.721322
  H     -3.361464   -4.960201    4.864096
  H     -3.288892   -4.021564    3.363579
  H     -2.716233   -5.702964    3.391529
  H      1.239409   -5.684700   -0.542453
  H      0.012402   -5.474076   -1.788550
  H     -0.444106   -6.061037   -0.190139
  H      8.988255   -1.894250   -1.339810
  H      7.647193   -2.567052   -0.419507
  H      8.549557   -1.198892    0.220223
  H      3.461451   -3.567999   -4.977178
  H      2.889170   -2.730593   -3.541469
  H      3.794189   -4.226076   -3.380184
  H      3.775818   -3.389257    3.377511
  H      2.940571   -2.583792    4.700684
  H      3.225067   -1.733214    3.186983

 Total Charge           Charge          ....    0
 Multiplicity           Mult            ....    1
 Number of Electrons    NEL             ....  380
 Basis Dimension        Dim             ....  924

ORBITAL ENERGIES
----------------

  NO   OCC          E(Eh)            E(eV)
   0   2.0000     -19.522369      -531.2307
   1   2.0000     -19.522347      -531.2301
   2   2.0000     -10.498999      -285.6923
   3   2.0000     -10.498873      -285.6889
   4   2.0000     -10.488977      -285.4196
   5   2.0000     -10.488944      -285.4187
   6   2.0000     -10.462623      -284.7024
   7   2.0000     -10.462527      -284.6998
   8   2.0000     -10.462441      -284.6975
   9   2.0000     -10.462122      -284.6888
  10   2.0000     -10.462006      -284.6857
  11   2.0000     -10.461714      -284.6777
  12   2.0000     -10.460201      -284.6365
  13   2.0000     -10.460066      -284.6329
  14   2.0000     -10.459980      -284.6305
  15   2.0000     -10.459759      -284.6245
  16   2.0000     -10.459622      -284.6208
  17   2.0000     -10.459435      -284.6157
  18   2.0000     -10.459148      -284.6079
  19   2.0000     -10.458564      -284.5920
  20   2.0000     -10.458506      -284.5904
  21   2.0000     -10.458259      -284.5837
  22   2.0000     -10.458017      -284.5771
  23   2.0000     -10.457830      -284.5720
  24   2.0000     -10.457758      -284.5701
  25   2.0000     -10.457427      -284.5611
  26   2.0000     -10.457387      -284.5600
  27   2.0000     -10.457264      -284.5566
  28   2.0000     -10.450008      -284.3592
  29   2.0000     -10.449793      -284.3533
  30   2.0000     -10.449753      -284.3522
  31   2.0000     -10.448978      -284.3312
  32   2.0000     -10.448854      -284.3278
  33   2.0000     -10.448385      -284.3150
  34   2.0000     -10.447354      -284.2870
  35   2.0000     -10.447334      -284.2864
  36   2.0000     -10.444230      -284.2019
  37   2.0000     -10.443557      -284.1836
  38   2.0000     -10.434076      -283.9256
  39   2.0000     -10.433321      -283.9051
  40   2.0000     -10.430681      -283.8333
  41   2.0000     -10.430327      -283.8236
  42   2.0000     -10.430259      -283.8218
  43   2.0000     -10.430023      -283.8153
  44   2.0000     -10.429520      -283.8017
  45   2.0000     -10.429398      -283.7983
  46   2.0000     -10.426675      -283.7243
  47   2.0000     -10.426064      -283.7076
  48   2.0000     -10.424207      -283.6571
  49   2.0000     -10.422913      -283.6219
  50   2.0000     -10.420325      -283.5515
  51   2.0000     -10.419279      -283.5230
  52   2.0000     -10.412529      -283.3393
  53   2.0000     -10.412299      -283.3331
  54   2.0000      -6.944863      -188.9793
  55   2.0000      -6.944382      -188.9662
  56   2.0000      -1.180249       -32.1162
  57   2.0000      -1.180080       -32.1116
  58   2.0000      -1.013265       -27.5723
  59   2.0000      -1.012723       -27.5576
  60   2.0000      -0.959916       -26.1207
  61   2.0000      -0.956239       -26.0206
  62   2.0000      -0.951524       -25.8923
  63   2.0000      -0.950400       -25.8617
  64   2.0000      -0.931040       -25.3349
  65   2.0000      -0.930645       -25.3241
  66   2.0000      -0.905869       -24.6500
  67   2.0000      -0.897572       -24.4242
  68   2.0000      -0.880698       -23.9650
  69   2.0000      -0.880196       -23.9513
  70   2.0000      -0.858054       -23.3488
  71   2.0000      -0.852497       -23.1976
  72   2.0000      -0.850780       -23.1509
  73   2.0000      -0.847415       -23.0593
  74   2.0000      -0.844494       -22.9798
  75   2.0000      -0.844133       -22.9700
  76   2.0000      -0.819062       -22.2878
  77   2.0000      -0.815338       -22.1865
  78   2.0000      -0.814416       -22.1614
  79   2.0000      -0.810909       -22.0659
  80   2.0000      -0.809297       -22.0221
  81   2.0000      -0.801568       -21.8118
  82   2.0000      -0.773472       -21.0472
  83   2.0000      -0.772705       -21.0264
  84   2.0000      -0.761157       -20.7121
  85   2.0000      -0.760498       -20.6942
  86   2.0000      -0.731813       -19.9136
  87   2.0000      -0.726321       -19.7642
  88   2.0000      -0.724053       -19.7025
  89   2.0000      -0.717635       -19.5278
  90   2.0000      -0.706878       -19.2351
  91   2.0000      -0.705785       -19.2054
  92   2.0000      -0.686597       -18.6833
  93   2.0000      -0.678780       -18.4706
  94   2.0000      -0.676872       -18.4186
  95   2.0000      -0.662079       -18.0161
  96   2.0000      -0.656834       -17.8734
  97   2.0000      -0.645738       -17.5714
  98   2.0000      -0.644625       -17.5411
  99   2.0000      -0.643085       -17.4992
 100   2.0000      -0.634906       -17.2767
 101   2.0000      -0.634379       -17.2623
 102   2.0000      -0.592372       -16.1193
 103   2.0000      -0.590092       -16.0572
 104   2.0000      -0.590057       -16.0563
 105   2.0000      -0.586050       -15.9472
 106   2.0000      -0.582791       -15.8586
 107   2.0000      -0.582452       -15.8493
 108   2.0000      -0.580826       -15.8051
 109   2.0000      -0.572720       -15.5845
 110   2.0000      -0.571758       -15.5583
 111   2.0000      -0.558732       -15.2039
 112   2.0000      -0.558179       -15.1888
 113   2.0000      -0.541406       -14.7324
 114   2.0000      -0.540844       -14.7171
 115   2.0000      -0.534046       -14.5321
 116   2.0000      -0.533345       -14.5130
 117   2.0000      -0.533178       -14.5085
 118   2.0000      -0.525552       -14.3010
 119   2.0000      -0.521382       -14.1875
 120   2.0000      -0.510178       -13.8827
 121   2.0000      -0.504714       -13.7340
 122   2.0000      -0.499810       -13.6005
 123   2.0000      -0.497474       -13.5370
 124   2.0000      -0.495985       -13.4964
 125   2.0000      -0.495485       -13.4828
 126   2.0000      -0.494236       -13.4488
 127   2.0000      -0.490688       -13.3523
 128   2.0000      -0.488897       -13.3036
 129   2.0000      -0.486895       -13.2491
 130   2.0000      -0.483012       -13.1434
 131   2.0000      -0.481174       -13.0934
 132   2.0000      -0.480480       -13.0745
 133   2.0000      -0.478845       -13.0300
 134   2.0000      -0.476583       -12.9685
 135   2.0000      -0.473305       -12.8793
 136   2.0000      -0.472046       -12.8450
 137   2.0000      -0.469335       -12.7712
 138   2.0000      -0.465993       -12.6803
 139   2.0000      -0.465488       -12.6666
 140   2.0000      -0.462671       -12.5899
 141   2.0000      -0.460887       -12.5414
 142   2.0000      -0.459044       -12.4912
 143   2.0000      -0.451743       -12.2925
 144   2.0000      -0.445693       -12.1279
 145   2.0000      -0.442404       -12.0384
 146   2.0000      -0.438164       -11.9230
 147   2.0000      -0.437847       -11.9144
 148   2.0000      -0.431745       -11.7484
 149   2.0000      -0.425820       -11.5871
 150   2.0000      -0.425543       -11.5796
 151   2.0000      -0.421961       -11.4821
 152   2.0000      -0.420580       -11.4446
 153   2.0000      -0.420171       -11.4334
 154   2.0000      -0.416416       -11.3312
 155   2.0000      -0.413024       -11.2390
 156   2.0000      -0.411153       -11.1880
 157   2.0000      -0.407729       -11.0949
 158   2.0000      -0.404326       -11.0023
 159   2.0000      -0.403502       -10.9798
 160   2.0000      -0.396280       -10.7833
 161   2.0000      -0.392318       -10.6755
 162   2.0000      -0.391919       -10.6647
 163   2.0000      -0.391815       -10.6618
 164   2.0000      -0.389533       -10.5997
 165   2.0000      -0.388154       -10.5622
 166   2.0000      -0.383360       -10.4318
 167   2.0000      -0.382594       -10.4109
 168   2.0000      -0.375648       -10.2219
 169   2.0000      -0.369967       -10.0673
 170   2.0000      -0.365413        -9.9434
 171   2.0000      -0.361827        -9.8458
 172   2.0000      -0.359552        -9.7839
 173   2.0000      -0.353247        -9.6123
 174   2.0000      -0.352047        -9.5797
 175   2.0000      -0.347860        -9.4658
 176   2.0000      -0.336818        -9.1653
 177   2.0000      -0.334876        -9.1125
 178   2.0000      -0.314760        -8.5651
 179   2.0000      -0.309445        -8.4204
 180   2.0000      -0.292737        -7.9658
 181   2.0000      -0.291913        -7.9434
 182   2.0000      -0.277190        -7.5427
 183   2.0000      -0.272093        -7.4040
 184   2.0000      -0.272034        -7.4024
 185   2.0000      -0.259036        -7.0487
 186   2.0000      -0.253345        -6.8939
 187   2.0000      -0.252827        -6.8798
 188   2.0000      -0.247513        -6.7352
 189   2.0000      -0.244903        -6.6642
 190   0.0000      -0.087401        -2.3783
 191   0.0000      -0.055693        -1.5155
 192   0.0000      -0.032886        -0.8949
 193   0.0000      -0.026162        -0.7119
 194   0.0000      -0.001655        -0.0450

MULLIKEN ATOMIC CHARGES
-----------------------
   0 C :   -0.159675
   1 C :   -0.154003
   2 B :    0.677228
   3 C :   -0.151003
   4 C :   -0.148274
   5 B :    0.676448
   6 C :   -0.397897
   7 C :    0.099358
   8 C :    0.093822
   9 C :   -0.396519
  10 C :   -0.378288
  11 C :    0.091255
  12 C :    0.100328
  13 C :   -0.383697
  14 C :   -0.382225
  15 C :   -0.203107
  16 C :   -0.333864
  17 C :    0.249175
  18 C :   -0.060708
  19 C :    0.194356
  20 C :   -0.333135
  21 C :   -0.203548
  22 C :   -0.381767
  23 C :    0.194641
  24 C :   -0.202910
  25 C :   -0.380831
  26 C :    0.191657
  27 C :   -0.059572
  28 C :    0.250048
  29 C :   -0.334149
  30 C :    0.191838
  31 C :   -0.377401
  32 C :   -0.204597
  33 C :   -0.332909
  34 C :   -0.425851
  35 C :    0.095408
  36 C :   -0.219158
  37 C :    0.054126
  38 C :   -0.383852
  39 C :    0.403547
  40 C :   -0.544681
  41 C :   -0.759470
  42 O :   -0.453732
  43 C :   -0.404944
  44 C :   -0.380076
  45 C :    0.073421
  46 C :   -0.230957
  47 C :    0.074970
  48 C :   -0.428880
  49 C :    0.403806
  50 C :   -0.758569
  51 C :   -0.550429
  52 O :   -0.454074
  53 C :   -0.405248
  54 H :    0.238554
  55 H :    0.237935
  56 H :    0.233172
  57 H :    0.230272
  58 H :    0.220504
  59 H :    0.225486
  60 H :    0.218941
  61 H :    0.219178
  62 H :    0.225716
  63 H :    0.220705
  64 H :    0.224868
  65 H :    0.219525
  66 H :    0.218819
  67 H :    0.219946
  68 H :    0.225200
  69 H :    0.218793
  70 H :    0.220509
  71 H :    0.221247
  72 H :    0.225193
  73 C :   -0.643786
  74 H :    0.248894
  75 H :    0.238819
  76 H :    0.202548
  77 H :    0.202992
  78 H :    0.220581
  79 H :    0.221810
  80 H :    0.255808
  81 H :    0.227528
  82 C :   -0.639979
  83 H :    0.238966
  84 H :    0.203032
  85 H :    0.202687
  86 H :    0.240260
  87 H :    0.218020
  88 H :    0.212177
  89 H :    0.213361
  90 H :    0.239987
  91 H :    0.219525
  92 H :    0.237564
  93 H :    0.244699
  94 H :    0.248733
  95 H :    0.244809
  96 H :    0.236652
  97 H :    0.244312
Sum of atomic charges:   -0.0000000

LOEWDIN ATOMIC CHARGES
----------------------
   0 C :   -0.088442
   1 C :   -0.088402
   2 B :    0.080715
   3 C :   -0.084599
   4 C :   -0.085795
   5 B :    0.079691
   6 C :   -0.087291
   7 C :   -0.015385
   8 C :   -0.016373
   9 C :   -0.086528
  10 C :   -0.082278
  11 C :   -0.015337
  12 C :   -0.015524
  13 C :   -0.082197
  14 C :   -0.106997
  15 C :   -0.130498
  16 C :   -0.112018
  17 C :   -0.036801
  18 C :   -0.019867
  19 C :   -0.022745
  20 C :   -0.112221
  21 C :   -0.130587
  22 C :   -0.107334
  23 C :   -0.022606
  24 C :   -0.130738
  25 C :   -0.107143
  26 C :   -0.022131
  27 C :   -0.019993
  28 C :   -0.036951
  29 C :   -0.112137
  30 C :   -0.022312
  31 C :   -0.107161
  32 C :   -0.130710
  33 C :   -0.112392
  34 C :   -0.204229
  35 C :   -0.024055
  36 C :   -0.127638
  37 C :   -0.022175
  38 C :   -0.167678
  39 C :    0.067862
  40 C :   -0.227834
  41 C :   -0.343550
  42 O :   -0.171281
  43 C :   -0.182677
  44 C :   -0.169160
  45 C :   -0.027952
  46 C :   -0.129194
  47 C :   -0.019272
  48 C :   -0.202659
  49 C :    0.067897
  50 C :   -0.343339
  51 C :   -0.227258
  52 O :   -0.171713
  53 C :   -0.182703
  54 H :    0.150717
  55 H :    0.150815
  56 H :    0.151023
  57 H :    0.149962
  58 H :    0.142717
  59 H :    0.139175
  60 H :    0.139532
  61 H :    0.139576
  62 H :    0.139226
  63 H :    0.142744
  64 H :    0.138970
  65 H :    0.142361
  66 H :    0.139353
  67 H :    0.142663
  68 H :    0.138993
  69 H :    0.139292
  70 H :    0.136332
  71 H :    0.141913
  72 H :    0.128032
  73 C :   -0.354230
  74 H :    0.140816
  75 H :    0.129412
  76 H :    0.111379
  77 H :    0.111679
  78 H :    0.141852
  79 H :    0.136650
  80 H :    0.141938
  81 H :    0.129385
  82 C :   -0.353618
  83 H :    0.129395
  84 H :    0.111749
  85 H :    0.111378
  86 H :    0.134016
  87 H :    0.126015
  88 H :    0.123892
  89 H :    0.124477
  90 H :    0.133503
  91 H :    0.126491
  92 H :    0.133493
  93 H :    0.144949
  94 H :    0.147220
  95 H :    0.145452
  96 H :    0.133633
  97 H :    0.145374

  Mayer bond orders larger than 0.1
B(  0-C ,  1-C ) :   1.3460 B(  0-C ,  5-B ) :   0.9096 B(  0-C , 10-C ) :   1.4087
B(  1-C ,  2-B ) :   0.9124 B(  1-C , 13-C ) :   1.4060 B(  2-B ,  3-C ) :   0.9094
B(  2-B , 36-C ) :   0.8426 B(  3-C ,  4-C ) :   1.3458 B(  3-C ,  6-C ) :   1.3999
B(  4-C ,  5-B ) :   0.9165 B(  4-C ,  9-C ) :   1.4011 B(  5-B , 46-C ) :   0.8330
B(  6-C ,  7-C ) :   1.3344 B(  6-C , 54-H ) :   0.9145 B(  7-C ,  8-C ) :   1.3462
B(  7-C , 19-C ) :   0.9707 B(  8-C ,  9-C ) :   1.3307 B(  8-C , 23-C ) :   0.9720
B(  9-C , 55-H ) :   0.9155 B( 10-C , 11-C ) :   1.3328 B( 10-C , 56-H ) :   0.9185
B( 11-C , 12-C ) :   1.3431 B( 11-C , 30-C ) :   0.9785 B( 12-C , 13-C ) :   1.3325
B( 12-C , 26-C ) :   0.9715 B( 13-C , 57-H ) :   0.9204 B( 14-C , 15-C ) :   1.3106
B( 14-C , 19-C ) :   1.4030 B( 14-C , 58-H ) :   0.9306 B( 15-C , 16-C ) :   1.5466
B( 15-C , 59-H ) :   0.9186 B( 16-C , 17-C ) :   1.1878 B( 16-C , 60-H ) :   0.9268
B( 17-C , 18-C ) :   1.2317 B( 17-C , 20-C ) :   1.1883 B( 18-C , 19-C ) :   1.2232
B( 18-C , 23-C ) :   1.2228 B( 20-C , 21-C ) :   1.5468 B( 20-C , 61-H ) :   0.9266
B( 21-C , 22-C ) :   1.3103 B( 21-C , 62-H ) :   0.9185 B( 22-C , 23-C ) :   1.4036
B( 22-C , 63-H ) :   0.9304 B( 24-C , 25-C ) :   1.3096 B( 24-C , 29-C ) :   1.5479
B( 24-C , 64-H ) :   0.9188 B( 25-C , 26-C ) :   1.4049 B( 25-C , 65-H ) :   0.9308
B( 26-C , 27-C ) :   1.2223 B( 27-C , 28-C ) :   1.2329 B( 27-C , 30-C ) :   1.2231
B( 28-C , 29-C ) :   1.1866 B( 28-C , 33-C ) :   1.1874 B( 29-C , 66-H ) :   0.9269
B( 30-C , 31-C ) :   1.4045 B( 31-C , 32-C ) :   1.3099 B( 31-C , 67-H ) :   0.9306
B( 32-C , 33-C ) :   1.5470 B( 32-C , 68-H ) :   0.9187 B( 33-C , 69-H ) :   0.9271
B( 34-C , 35-C ) :   1.3636 B( 34-C , 39-C ) :   1.3545 B( 34-C , 70-H ) :   0.9085
B( 35-C , 36-C ) :   1.4525 B( 35-C , 40-C ) :   0.9713 B( 36-C , 37-C ) :   1.3655
B( 37-C , 38-C ) :   1.4795 B( 37-C , 41-C ) :   0.9772 B( 38-C , 39-C ) :   1.3492
B( 38-C , 71-H ) :   0.9097 B( 39-C , 42-O ) :   1.0351 B( 40-C , 72-H ) :   0.9218
B( 40-C , 73-C ) :   0.9755 B( 40-C , 74-H ) :   0.8974 B( 41-C , 92-H ) :   0.9269
B( 41-C , 93-H ) :   0.9041 B( 41-C , 94-H ) :   0.9007 B( 42-O , 43-C ) :   0.9600
B( 43-C , 75-H ) :   0.9233 B( 43-C , 76-H ) :   0.9079 B( 43-C , 77-H ) :   0.9079
B( 44-C , 45-C ) :   1.4689 B( 44-C , 49-C ) :   1.3508 B( 44-C , 78-H ) :   0.9109
B( 45-C , 46-C ) :   1.3660 B( 45-C , 50-C ) :   0.9803 B( 46-C , 47-C ) :   1.4606
B( 47-C , 48-C ) :   1.3706 B( 47-C , 51-C ) :   0.9724 B( 48-C , 49-C ) :   1.3515
B( 48-C , 79-H ) :   0.9077 B( 49-C , 52-O ) :   1.0346 B( 50-C , 95-H ) :   0.9031
B( 50-C , 96-H ) :   0.9272 B( 50-C , 97-H ) :   0.9054 B( 51-C , 80-H ) :   0.8909
B( 51-C , 81-H ) :   0.9197 B( 51-C , 82-C ) :   0.9764 B( 52-O , 53-C ) :   0.9603
B( 53-C , 83-H ) :   0.9230 B( 53-C , 84-H ) :   0.9077 B( 53-C , 85-H ) :   0.9077
B( 73-C , 89-H ) :   0.9288 B( 73-C , 90-H ) :   0.9117 B( 73-C , 91-H ) :   0.9269
B( 82-C , 86-H ) :   0.9141 B( 82-C , 87-H ) :   0.9272 B( 82-C , 88-H ) :   0.9286

Dispersion correction           -0.089717245
FINAL SINGLE POINT ENERGY     -2202.256691760198

DIPOLE MOMENT
-------------
                                X             Y             Z
Electronic contribution:     -0.22110       5.27987       3.97576
Nuclear contribution   :      0.02938      -5.36754      -4.40632
                        -----------------------------------------
Total Dipole Moment    :     -0.19172      -0.08768      -0.43056
                        -----------------------------------------
Magnitude (a.u.)       :      0.47940
Magnitude (Debye)      :      1.21855

                             ****ORCA TERMINATED NORMALLY****
TOTAL RUN TIME: 0 days 0 hours 14 minutes 12 seconds 710 msec
