 Q-Chem 5.0, Q-Chem, Inc., Pleasanton, CA (2017)
 Q-Chem 5.0.1 for Intel X86 EM64T Linux

User input:
--------------------------------------------------------------
$solvent
dielectric      4.33
dielectric_infi 1.83
$end

$rem
threads 8
jobtype	sp
method PBEh-3c
basis def2-mSVP
mem_static	1024
mem_total	14000
sym_ignore	true
cis_n_roots             2
cis_singlets            true
cis_triplets		false
rpa                     false
calc_soc 		true
cis_moments             true
cis_relaxed_density	true
solvent_method		pcm
$end

$pcm
StateSpecific   1
ChargeSeparation Excited
$end

$molecule
read sleopt.mol
$end

--------------------------------------------------------------

   14   -1973.7172110996      8.58E-09 Convergence criterion met
 Total energy in the final basis set = -1973.71721110
 Total job time:  4697.81s(wall), 15683.62s(cpu)
        *  Thank you very much for using Q-Chem.  Have a nice day.  *
 Q-Chem 5.0, Q-Chem, Inc., Pleasanton, CA (2017)
 Q-Chem 5.0.1 for Intel X86 EM64T Linux

User input:
--------------------------------------------------------------
$rem
threads 8
jobtype sp
method PBEh-3c
basis def2-mSVP
mem_static      1024
mem_total       14000
sym_ignore      true
cis_n_roots             6
cis_singlets            true
cis_triplets            true
rpa                     false
calc_soc                true
cis_moments             true
cis_relaxed_density     true
solvent_method          pcm
$end

$molecule
read
$end

$pcm
statespecific           Marcus
$end

$solvent
dielectric      4.33
dielectric_infi 1.83
$end

--------------------------------------------------------------

             Standard Nuclear Orientation (Angstroms)
    I     Atom           X                Y                Z
 ----------------------------------------------------------------
    1      C       0.0000000000     0.0000000000     0.0000000000
    2      C       0.0000000000     0.0000000000     1.3998220000
    3      H       0.9453129492     0.0000000000     1.9314413338
    4      C      -1.1852562271    -0.0439197277     2.0888531747
    5      C      -1.4489517596    -0.1301941159     3.5051479647
    6      C      -0.6688780495    -0.1631059843     4.6385429699
    7      H       0.4102892303    -0.0933669668     4.5907927612
    8      C      -1.3076881732    -0.2999522293     5.8856047751
    9      H      -0.6982585181    -0.3258752815     6.7795830809
   10      C      -2.6771084762    -0.4101631710     6.0098754350
   11      H      -3.1198312618    -0.5225289057     6.9918933141
   12      C      -2.8495966076    -0.2345597903     3.6387425285
   13      C      -3.5020396618    -0.3847136060     4.8624428916
   14      C      -4.9080499217    -0.5086179928     4.8007005040
   15      H      -5.4813477794    -0.6317727923     5.7111541476
   16      C      -5.5512270427    -0.4815338387     3.5812691760
   17      H      -6.6281028594    -0.5844745154     3.5586130305
   18      C      -4.8664001020    -0.3313133342     2.3577393275
   19      H      -5.4223470614    -0.3259636628     1.4294074136
   20      C      -3.4970747663    -0.2050702002     2.3820892220
   21      C      -2.4495568805    -0.0785550222     1.3859648725
   22      C      -2.4680885394    -0.0303078097     0.0113251352
   23      H      -3.4078400197    -0.0447971910    -0.5290987266
   24      C      -1.2645346554     0.0081436077    -0.7142726667
   25      B       1.3346699437    -0.0887273882    -0.7468569715
   26      C       1.3043301096    -0.1675490420    -2.2767624380
   27      C       2.5018428055    -0.3469931849    -2.9793595804
   28      H       3.4351201777    -0.4018528600    -2.4293957346
   29      C       2.4873186054    -0.4848287392    -4.3451883801
   30      C       3.5519896469    -0.7561964234    -5.2796107755
   31      C       4.9075992657    -0.9689906864    -5.1724165813
   32      H       5.4182574272    -0.9289119725    -4.2186091423
   33      C       5.6304380746    -1.2551227719    -6.3461386209
   34      H       6.6964619185    -1.4254152927    -6.2688368091
   35      C       5.0323159430    -1.3328452811    -7.5874903611
   36      H       5.6342551487    -1.5618121815    -8.4580863750
   37      C       2.9455453837    -0.8372766547    -6.5527035557
   38      C       3.6400280730    -1.1244743701    -7.7265318997
   39      C       2.8590482469    -1.1887288794    -8.9031259832
   40      H       3.3290992486    -1.4059538859    -9.8541546176
   41      C       1.4962474362    -0.9839556169    -8.8434948268
   42      H       0.9210770768    -1.0443563064    -9.7579597843
   43      C       0.8164417929    -0.7072852519    -7.6402599885
   44      H      -0.2564939797    -0.5668138172    -7.6466490606
   45      C       1.5483917116    -0.6304002983    -6.4789758760
   46      C       1.2421841306    -0.4138154702    -5.0800951816
   47      C       0.0583782339    -0.2219534748    -4.4057556659
   48      H      -0.8815639274    -0.1814140816    -4.9441386634
   49      C       0.0476222139    -0.1107548649    -3.0051370698
   50      B      -1.2868358135     0.0007430412    -2.2497708951
   51      C      -2.6527992985     0.0511152635    -3.0296534328
   52      C      -3.2338032397     1.2790013334    -3.3603380463
   53      C      -4.4380966766     1.3147739646    -4.0564604477
   54      H      -4.8752952290     2.2750858432    -4.3096712750
   55      C      -5.0898458481     0.1497107515    -4.4352646617
   56      C      -4.5105802841    -1.0670918979    -4.0936320293
   57      H      -5.0092412225    -1.9894626772    -4.3755174532
   58      C      -3.3089535046    -1.1309752089    -3.4004732135
   59      C      -6.3807647743     0.1896488730    -5.2004317478
   60      H      -6.7459166838     1.2092877191    -5.3189927705
   61      H      -7.1616545763    -0.3841912642    -4.6989985203
   62      H      -6.2638297894    -0.2338516054    -6.1998271539
   63      C      -2.5533688306     2.5579325313    -2.9580916913
   64      H      -3.0952755280     3.4344480323    -3.3132724169
   65      H      -1.5380210727     2.6135164277    -3.3563139372
   66      H      -2.4695877259     2.6401797296    -1.8721075154
   67      C      -2.7110798125    -2.4648846968    -3.0462159661
   68      H      -3.3632698223    -3.2887499939    -3.3364881794
   69      H      -2.5288383513    -2.5497870622    -1.9727955128
   70      H      -1.7484130476    -2.6184499970    -3.5391505082
   71      C       2.6922605825    -0.1770248674     0.0516499432
   72      C       3.2028093314    -1.4219700270     0.4381164045
   73      C       4.3968163218    -1.4959885397     1.1488901097
   74      H       4.7795946023    -2.4694197625     1.4385662391
   75      C       5.1082594532    -0.3569358862     1.4957272577
   76      C       4.5948553350     0.8762397528     1.1108825779
   77      H       5.1362640785     1.7805559904     1.3708258025
   78      C       3.4062605873     0.9778914103     0.3995087813
   79      C       6.3900213337    -0.4463622792     2.2727412947
   80      H       6.7144168831    -1.4796412422     2.3929499936
   81      H       7.1971697076     0.0970937028     1.7793278513
   82      H       6.2811609612    -0.0204904387     3.2721154462
   83      C       2.8751152990     2.3276317389     0.0066394699
   84      H       3.5585514177     3.1290371468     0.2874176476
   85      H       2.7106158584     2.3930923706    -1.0707587363
   86      H       1.9140302399     2.5298350147     0.4847481998
   87      C       2.4615978171    -2.6844835309     0.0939776439
   88      H       2.9911788513    -3.5704489212     0.4448237161
   89      H       2.3226872852    -2.7899696499    -0.9838715215
   90      H       1.4660822169    -2.6976477898     0.5428619474
 ----------------------------------------------------------------

   15   -1973.7170030936      5.27E-09 Convergence criterion met
 Total energy in the final basis set = -1973.71700309

         TDDFT/TDA Excitation Energies
 ---------------------------------------------------

 Excited state   1: excitation energy (eV) =    2.0267
 Total energy for state  1:                 -1973.64252459 au
    Multiplicity: Triplet
    Trans. Mom.:  0.0000 X   0.0000 Y   0.0000 Z
    Strength   :     0.0000000000
    D(167) --> V(  2) amplitude = -0.2529
    D(174) --> V(  1) amplitude =  0.9248

 Excited state   2: excitation energy (eV) =    2.3576
 Total energy for state  2:                 -1973.63036307 au
    Multiplicity: Triplet
    Trans. Mom.:  0.0000 X   0.0000 Y   0.0000 Z
    Strength   :     0.0000000000
    D(172) --> V(  2) amplitude =  0.4699
    D(173) --> V(  1) amplitude =  0.8126

 Excited state   3: excitation energy (eV) =    2.4246
 Total energy for state  3:                 -1973.62790190 au
    Multiplicity: Triplet
    Trans. Mom.:  0.0000 X   0.0000 Y   0.0000 Z
    Strength   :     0.0000000000
    D(172) --> V(  1) amplitude =  0.7371
    D(172) --> V(  4) amplitude = -0.2237
    D(173) --> V(  2) amplitude =  0.5457

 Excited state   4: excitation energy (eV) =    2.5394
 Total energy for state  4:                 -1973.62368295 au
    Multiplicity: Triplet
    Trans. Mom.:  0.0000 X   0.0000 Y   0.0000 Z
    Strength   :     0.0000000000
    D(167) --> V(  1) amplitude =  0.7246
    D(174) --> V(  2) amplitude = -0.5672

 Excited state   5: excitation energy (eV) =    2.6911
 Total energy for state  5:                 -1973.61810605 au
    Multiplicity: Singlet
    Trans. Mom.: -0.0547 X   0.0326 Y   0.0747 Z
    Strength   :     0.0006357339
    D(174) --> V(  1) amplitude =  0.9676

 Excited state   6: excitation energy (eV) =    3.0357
 Total energy for state  6:                 -1973.60544365 au
    Multiplicity: Triplet
    Trans. Mom.:  0.0000 X   0.0000 Y   0.0000 Z
    Strength   :     0.0000000000
    D(171) --> V(  1) amplitude =  0.9326

 Excited state   7: excitation energy (eV) =    3.0829
 Total energy for state  7:                 -1973.60371007 au
    Multiplicity: Singlet
    Trans. Mom.:  2.0371 X  -0.2116 Y  -3.5818 Z
    Strength   :     1.2857963658
    D(173) --> V(  1) amplitude =  0.9533

 Excited state   8: excitation energy (eV) =    3.1124
 Total energy for state  8:                 -1973.60262438 au
    Multiplicity: Singlet
    Trans. Mom.:  0.0813 X   0.0038 Y  -0.2320 Z
    Strength   :     0.0046102961
    D(171) --> V(  1) amplitude =  0.9456

 Excited state   9: excitation energy (eV) =    3.1982
 Total energy for state  9:                 -1973.59947135 au
    Multiplicity: Triplet
    Trans. Mom.:  0.0000 X   0.0000 Y   0.0000 Z
    Strength   :     0.0000000000
    D(170) --> V(  1) amplitude =  0.9595

 Excited state  10: excitation energy (eV) =    3.2319
 Total energy for state 10:                 -1973.59823280 au
    Multiplicity: Singlet
    Trans. Mom.:  0.0395 X  -0.0138 Y  -0.2363 Z
    Strength   :     0.0045587070
    D(170) --> V(  1) amplitude =  0.9698

 Excited state  11: excitation energy (eV) =    3.4113
 Total energy for state 11:                 -1973.59164131 au
    Multiplicity: Singlet
    Trans. Mom.: -0.1517 X   0.3266 Y  -0.1045 Z
    Strength   :     0.0117479690
    D(172) --> V(  1) amplitude =  0.9176

 Excited state  12: excitation energy (eV) =    3.4779
 Total energy for state 12:                 -1973.58919184 au
    Multiplicity: Singlet
    Trans. Mom.: -0.9103 X  -0.0074 Y  -0.5008 Z
    Strength   :     0.0919754697
    D(167) --> V(  1) amplitude =  0.7408
    D(174) --> V(  2) amplitude = -0.5745

 ---------------------------------------------------

                    Orbital Energies (a.u.)
 --------------------------------------------------------------

 Alpha MOs
 -- Occupied --
-10.467 -10.467 -10.466 -10.466 -10.465 -10.465 -10.465 -10.465
-10.465 -10.465 -10.463 -10.463 -10.462 -10.462 -10.462 -10.462
-10.461 -10.461 -10.458 -10.458 -10.458 -10.458 -10.456 -10.456
-10.454 -10.454 -10.452 -10.452 -10.451 -10.451 -10.450 -10.450
-10.449 -10.449 -10.439 -10.438 -10.437 -10.437 -10.433 -10.433
-10.433 -10.432 -10.428 -10.427 -10.427 -10.426 -10.426 -10.426
-10.422 -10.421  -6.946  -6.945  -1.017  -1.016  -0.963  -0.959
 -0.958  -0.957  -0.934  -0.934  -0.908  -0.899  -0.874  -0.870
 -0.870  -0.870  -0.859  -0.858  -0.848  -0.848  -0.820  -0.815
 -0.813  -0.800  -0.781  -0.781  -0.761  -0.759  -0.759  -0.758
 -0.734  -0.731  -0.730  -0.719  -0.689  -0.685  -0.678  -0.669
 -0.652  -0.645  -0.641  -0.641  -0.639  -0.638  -0.598  -0.592
 -0.592  -0.588  -0.583  -0.576  -0.575  -0.553  -0.548  -0.543
 -0.542  -0.542  -0.527  -0.526  -0.522  -0.510  -0.503  -0.501
 -0.496  -0.495  -0.494  -0.487  -0.487  -0.486  -0.481  -0.481
 -0.480  -0.480  -0.476  -0.467  -0.466  -0.465  -0.465  -0.464
 -0.464  -0.461  -0.457  -0.456  -0.451  -0.450  -0.446  -0.444
 -0.442  -0.440  -0.434  -0.431  -0.427  -0.424  -0.418  -0.413
 -0.412  -0.401  -0.398  -0.397  -0.397  -0.394  -0.391  -0.389
 -0.385  -0.381  -0.381  -0.380  -0.379  -0.368  -0.357  -0.352
 -0.349  -0.337  -0.326  -0.319  -0.298  -0.297  -0.280  -0.276
 -0.276  -0.268  -0.266  -0.264  -0.257  -0.253

          Ground-State Mulliken Net Atomic Charges

     Atom                 Charge (a.u.)
  ----------------------------------------
      1 C                    -0.154322
      2 C                    -0.383163
      3 H                     0.248203
      4 C                     0.066415
      5 C                     0.183997
      6 C                    -0.380567
      7 H                     0.250382
      8 C                    -0.231027
      9 H                     0.255393
     10 C                    -0.344560
     11 H                     0.252374
     12 C                    -0.080729
     13 C                     0.229399
     14 C                    -0.348088
     15 H                     0.252683
     16 C                    -0.228607
     17 H                     0.254968
     18 C                    -0.388971
     19 H                     0.250327
     20 C                     0.185113
     21 C                     0.092699
     22 C                    -0.394911
     23 H                     0.246921
     24 C                    -0.155303
     25 B                     0.675879
     26 C                    -0.153690
     27 C                    -0.386750
     28 H                     0.247590
     29 C                     0.069251
     30 C                     0.184564
     31 C                    -0.380248
     32 H                     0.250817
     33 C                    -0.230699
     34 H                     0.255488
     35 C                    -0.345407
     36 H                     0.252346
     37 C                    -0.081893
     38 C                     0.229719
     39 C                    -0.348098
     40 H                     0.252628
     41 C                    -0.229275
     42 H                     0.255157
     43 C                    -0.386482
     44 H                     0.250595
     45 C                     0.184562
     46 C                     0.090023
     47 C                    -0.393653
     48 H                     0.247034
     49 C                    -0.154958
     50 B                     0.678165
     51 C                    -0.218750
     52 C                     0.051581
     53 C                    -0.368699
     54 H                     0.223012
     55 C                     0.111588
     56 C                    -0.358281
     57 H                     0.221518
     58 C                     0.048207
     59 C                    -0.721439
     60 H                     0.237255
     61 H                     0.237609
     62 H                     0.238888
     63 C                    -0.772531
     64 H                     0.249117
     65 H                     0.246487
     66 H                     0.246938
     67 C                    -0.768728
     68 H                     0.248223
     69 H                     0.245914
     70 H                     0.246735
     71 C                    -0.224848
     72 C                     0.048657
     73 C                    -0.368079
     74 H                     0.223076
     75 C                     0.111795
     76 C                    -0.357131
     77 H                     0.221739
     78 C                     0.053289
     79 C                    -0.721437
     80 H                     0.237217
     81 H                     0.237638
     82 H                     0.239243
     83 C                    -0.769091
     84 H                     0.248381
     85 H                     0.246391
     86 H                     0.245330
     87 C                    -0.770152
     88 H                     0.248752
     89 H                     0.246598
     90 H                     0.246695
  ----------------------------------------
  Sum of atomic charges =    -0.000000

                    Cartesian Multipole Moments
 -----------------------------------------------------------------
    Charge (ESU x 10^10)
                -0.0000
    Dipole Moment (Debye)
         X       0.0836      Y      -1.1078      Z       0.1191
       Tot       1.1173
    Quadrupole Moments (Debye-Ang)
        XX    -249.6462     XY      -1.8059     YY    -299.6874
        XZ      -8.8810     YZ       5.0739     ZZ    -237.3487

 Total job time:  7796.19s(wall), 32960.35s(cpu)
        *  Thank you very much for using Q-Chem.  Have a nice day.  *
