 Q-Chem 5.1, Q-Chem, Inc., Pleasanton, CA (2018)
 Q-Chem 5.1.1 for Intel X86 EM64T Linux

User input:
--------------------------------------------------------------
$solvent
dielectric      2.38
dielectric_infi 2.25
$end

$rem
threads 8
jobtype	sp
method PBEh-3c
basis def2-mSVP
mem_static	1024
mem_total	14000
sym_ignore	true
cis_n_roots             2
cis_singlets            true
cis_triplets		false
rpa                     false
calc_soc 		true
cis_moments             true
cis_relaxed_density	true
solvent_method		pcm
$end

$pcm
StateSpecific   1
ChargeSeparation Excited
$end

$molecule
read sleopt.mol
$end

--------------------------------------------------------------

   15   -1973.7127275243      5.28e-09  Convergence criterion met
 Total energy in the final basis set =    -1973.7127275243
 Total job time:  5434.64s(wall), 24250.94s(cpu)
        *  Thank you very much for using Q-Chem.  Have a nice day.  *
 Q-Chem 5.1, Q-Chem, Inc., Pleasanton, CA (2018)
 Q-Chem 5.1.1 for Intel X86 EM64T Linux

User input:
--------------------------------------------------------------
$rem
threads 8
jobtype sp
method PBEh-3c
basis def2-mSVP
mem_static      1024
mem_total       14000
sym_ignore      true
cis_n_roots             6
cis_singlets            true
cis_triplets            true
rpa                     false
calc_soc                true
cis_moments             true
cis_relaxed_density     true
solvent_method          pcm
$end

$molecule
read
$end

$pcm
statespecific           Marcus
$end

$solvent
dielectric      2.38
dielectric_infi 2.25
$end

--------------------------------------------------------------

             Standard Nuclear Orientation (Angstroms)
    I     Atom           X                Y                Z
 ----------------------------------------------------------------
    1      C       0.0000000000     0.0000000000     0.0000000000
    2      C       0.0000000000     0.0000000000     1.4037220000
    3      H       0.9462457046     0.0000000000     1.9327659869
    4      C      -1.1850633206     0.0003253890     2.0958139739
    5      C      -1.4814842285    -0.0020402523     3.5131552233
    6      C      -0.7396211501    -0.0080188143     4.6713874514
    7      H       0.3424255854    -0.0124060693     4.6551802443
    8      C      -1.4224302876    -0.0084412662     5.9043866319
    9      H      -0.8398875981    -0.0130816119     6.8162790284
   10      C      -2.7985605838    -0.0033049059     5.9965106466
   11      H      -3.2723394995    -0.0039252042     6.9702791286
   12      C      -2.8906031052     0.0029884662     3.6189004427
   13      C      -3.5898861758     0.0026898770     4.8254834397
   14      C      -3.5119972230     0.0083582241     2.3491019523
   15      C      -4.8871147803     0.0140067004     2.2848800812
   16      H      -5.4136788736     0.0185134524     1.3390696719
   17      C      -5.6132047370     0.0139923924     3.4915286913
   18      H      -6.6944641488     0.0185480770     3.4446904351
   19      C      -5.0004592970     0.0083979897     4.7275393523
   20      H      -5.6053758856     0.0085383282     5.6258262862
   21      C      -2.4431101409     0.0063510034     1.3775118683
   22      C      -2.4632755512     0.0112739908     0.0028855855
   23      H      -3.4073162134     0.0200974160    -0.5315261281
   24      C      -1.2622557414     0.0060431628    -0.7206287282
   25      B       1.3354873671    -0.0013188506    -0.7504349388
   26      C       1.3172456190    -0.0371019297    -2.2823124891
   27      C       2.5288765043    -0.0703889111    -2.9920002025
   28      H       3.4630799770    -0.0715409907    -2.4414695740
   29      C       2.5278000936    -0.1001021727    -4.3655244269
   30      C       3.5968326457    -0.1366127362    -5.3421380961
   31      C       4.9710055145    -0.1570128358    -5.2923453902
   32      H       5.5076136810    -0.1471754082    -4.3525659845
   33      C       5.6840565765    -0.1914092370    -6.5078999028
   34      H       6.7653713458    -0.2073837742    -6.4701624406
   35      C       5.0631891169    -0.2054789806    -7.7395322623
   36      H       5.6607740470    -0.2318834776    -8.6421615800
   37      C       2.9715633033    -0.1513290415    -6.6096499331
   38      C       3.6521487867    -0.1852052081    -7.8252872054
   39      C       1.5626309885    -0.1264195547    -6.4967246537
   40      C       0.8037597377    -0.1359921117    -7.6448774134
   41      H      -0.2782173661    -0.1175540302    -7.6136039181
   42      C       1.4704996075    -0.1700969263    -8.8843337297
   43      H       0.8787630842    -0.1774905704    -9.7904862537
   44      C       2.8463484210    -0.1942375427    -8.9876007525
   45      H       3.3090523765    -0.2200128432    -9.9663200359
   46      C       1.2696166416    -0.0936599931    -5.0839149331
   47      C       0.0734697282    -0.0570267727    -4.4062960322
   48      H      -0.8656519760    -0.0474232318    -4.9491262302
   49      C       0.0548626586    -0.0300317839    -3.0052666092
   50      B      -1.2873950374     0.0125097398    -2.2562313509
   51      C       2.6916999029     0.0510705853     0.0456101650
   52      C       3.3353774494    -1.1233413755     0.4468745644
   53      C       4.5324727932    -1.0527083773     1.1529232844
   54      H       5.0237757080    -1.9713615884     1.4568544064
   55      C       5.1124612168     0.1661285787     1.4756070115
   56      C       4.4639992434     1.3289302249     1.0744846891
   57      H       4.9020247742     2.2921860312     1.3172029439
   58      C       3.2685120643     1.2862412883     0.3701914297
   59      C       6.3984740544     0.2387230647     2.2467403201
   60      H       6.8390029418    -0.7478745123     2.3863282531
   61      H       7.1363800299     0.8601660106     1.7370255048
   62      H       6.2445633411     0.6718237121     3.2370054354
   63      C       2.7268590735    -2.4571247426     0.1142558649
   64      H       3.3345133969    -3.2835301453     0.4827741085
   65      H       2.6115563852    -2.5863904963    -0.9641897938
   66      H       1.7300224086    -2.5596323123     0.5490803579
   67      C       2.5860778163     2.5607560169    -0.0439119151
   68      H       3.1492622722     3.4410597663     0.2660419828
   69      H       2.4598050925     2.6142239890    -1.1275471950
   70      H       1.5872811131     2.6378707386     0.3916112574
   71      C      -2.6569919005     0.0780061617    -3.0381824146
   72      C      -3.2248506567     1.3141448052    -3.3670542993
   73      C      -4.4390904405     1.3674293574    -4.0446024170
   74      H      -4.8645958154     2.3349607770    -4.2907422920
   75      C      -5.1175032669     0.2150728386    -4.4124903308
   76      C      -4.5502898745    -1.0098693844    -4.0804516055
   77      H      -5.0660530788    -1.9248545036    -4.3550113359
   78      C      -3.3400202459    -1.0908912797    -3.4040612811
   79      C      -6.4213794664     0.2806458733    -5.1546473378
   80      H      -6.7733619859     1.3067562245    -5.2571882806
   81      H      -7.2016516760    -0.2860363941    -4.6442939382
   82      H      -6.3290417067    -0.1350018816    -6.1598586112
   83      C      -2.7631088361    -2.4341078184    -3.0559447912
   84      H      -3.3881777324    -3.2489936968    -3.4211755134
   85      H      -1.7664994111    -2.5640597385    -3.4828242068
   86      H      -2.6601657580    -2.5553374305    -1.9753912193
   87      C      -2.5275777780     2.5899685497    -2.9847605184
   88      H      -3.0779904444     3.4677322738    -3.3237282333
   89      H      -1.5253246921     2.6427561731    -3.4148999087
   90      H      -2.4108596523     2.6725475818    -1.9019623519
 ----------------------------------------------------------------

   15   -1973.7127120404      5.10e-09  Convergence criterion met
 Total energy in the final basis set =    -1973.7127120404

         TDDFT/TDA Excitation Energies
 ---------------------------------------------------

 Excited state   1: excitation energy (eV) =    2.0165
 Total energy for state  1:                 -1973.63860709 au
    Multiplicity: Triplet
    Trans. Mom.:  0.0000 X   0.0000 Y   0.0000 Z
    Strength   :     0.0000000000
    D(167) --> V(  2) amplitude =  0.2564
    D(174) --> V(  1) amplitude =  0.9230

 Excited state   2: excitation energy (eV) =    2.3608
 Total energy for state  2:                 -1973.62595335 au
    Multiplicity: Triplet
    Trans. Mom.:  0.0000 X   0.0000 Y   0.0000 Z
    Strength   :     0.0000000000
    D(172) --> V(  2) amplitude =  0.4804
    D(173) --> V(  1) amplitude =  0.8080

 Excited state   3: excitation energy (eV) =    2.4246
 Total energy for state  3:                 -1973.62360935 au
    Multiplicity: Triplet
    Trans. Mom.:  0.0000 X   0.0000 Y   0.0000 Z
    Strength   :     0.0000000000
    D(172) --> V(  1) amplitude =  0.7384
    D(172) --> V(  4) amplitude =  0.2232
    D(173) --> V(  2) amplitude =  0.5435

 Excited state   4: excitation energy (eV) =    2.5242
 Total energy for state  4:                 -1973.61994877 au
    Multiplicity: Triplet
    Trans. Mom.:  0.0000 X   0.0000 Y   0.0000 Z
    Strength   :     0.0000000000
    D(167) --> V(  1) amplitude = -0.7225
    D(174) --> V(  2) amplitude = -0.5660

 Excited state   5: excitation energy (eV) =    2.6829
 Total energy for state  5:                 -1973.61411638 au
    Multiplicity: Singlet
    Trans. Mom.: -0.0798 X   0.0022 Y   0.1438 Z
    Strength   :     0.0017781965
    D(174) --> V(  1) amplitude =  0.9670

 Excited state   6: excitation energy (eV) =    3.0162
 Total energy for state  6:                 -1973.60186832 au
    Multiplicity: Triplet
    Trans. Mom.:  0.0000 X   0.0000 Y   0.0000 Z
    Strength   :     0.0000000000
    D(171) --> V(  1) amplitude =  0.9404

 Excited state   7: excitation energy (eV) =    3.0740
 Total energy for state  7:                 -1973.59974506 au
    Multiplicity: Singlet
    Trans. Mom.: -1.8439 X   0.0485 Y   3.2289 Z
    Strength   :     1.0414272487
    D(171) --> V(  1) amplitude = -0.4316
    D(173) --> V(  1) amplitude =  0.8538

 Excited state   8: excitation energy (eV) =    3.0972
 Total energy for state  8:                 -1973.59889175 au
    Multiplicity: Singlet
    Trans. Mom.: -1.0473 X   0.0245 Y   1.8443 Z
    Strength   :     0.3413917500
    D(171) --> V(  1) amplitude =  0.8602
    D(173) --> V(  1) amplitude =  0.4259

 Excited state   9: excitation energy (eV) =    3.1761
 Total energy for state  9:                 -1973.59599425 au
    Multiplicity: Triplet
    Trans. Mom.:  0.0000 X   0.0000 Y   0.0000 Z
    Strength   :     0.0000000000
    D(170) --> V(  1) amplitude =  0.9621

 Excited state  10: excitation energy (eV) =    3.2082
 Total energy for state 10:                 -1973.59481453 au
    Multiplicity: Singlet
    Trans. Mom.: -0.0026 X   0.0024 Y  -0.0081 Z
    Strength   :     0.0000061619
    D(170) --> V(  1) amplitude =  0.9695

 Excited state  11: excitation energy (eV) =    3.4062
 Total energy for state 11:                 -1973.58753472 au
    Multiplicity: Singlet
    Trans. Mom.: -0.1702 X  -0.0537 Y  -0.1014 Z
    Strength   :     0.0035164876
    D(172) --> V(  1) amplitude =  0.9262

 Excited state  12: excitation energy (eV) =    3.4586
 Total energy for state 12:                 -1973.58561011 au
    Multiplicity: Singlet
    Trans. Mom.:  0.9603 X  -0.0138 Y   0.5218 Z
    Strength   :     0.1012305741
    D(167) --> V(  1) amplitude = -0.7247
    D(174) --> V(  2) amplitude = -0.5882

 ---------------------------------------------------

                    Orbital Energies (a.u.)
 --------------------------------------------------------------

 Alpha MOs
 -- Occupied --
-10.466 -10.466 -10.465 -10.465 -10.465 -10.465 -10.465 -10.465
-10.464 -10.464 -10.463 -10.462 -10.462 -10.462 -10.462 -10.462
-10.461 -10.461 -10.459 -10.459 -10.459 -10.459 -10.454 -10.454
-10.454 -10.453 -10.449 -10.449 -10.449 -10.449 -10.449 -10.449
-10.448 -10.447 -10.437 -10.436 -10.436 -10.435 -10.431 -10.431
-10.430 -10.430 -10.427 -10.427 -10.425 -10.424 -10.424 -10.424
-10.420 -10.418  -6.945  -6.942  -1.016  -1.015  -0.961  -0.957
 -0.957  -0.955  -0.934  -0.934  -0.907  -0.898  -0.872  -0.869
 -0.868  -0.868  -0.858  -0.857  -0.848  -0.848  -0.818  -0.814
 -0.812  -0.799  -0.779  -0.779  -0.759  -0.757  -0.756  -0.756
 -0.733  -0.731  -0.730  -0.719  -0.689  -0.684  -0.678  -0.668
 -0.650  -0.643  -0.639  -0.639  -0.638  -0.636  -0.597  -0.592
 -0.591  -0.588  -0.583  -0.576  -0.575  -0.551  -0.546  -0.542
 -0.541  -0.540  -0.527  -0.526  -0.521  -0.510  -0.502  -0.500
 -0.495  -0.494  -0.493  -0.486  -0.485  -0.485  -0.480  -0.480
 -0.479  -0.478  -0.475  -0.467  -0.465  -0.464  -0.463  -0.463
 -0.463  -0.460  -0.455  -0.454  -0.449  -0.448  -0.445  -0.443
 -0.442  -0.439  -0.433  -0.430  -0.426  -0.422  -0.416  -0.411
 -0.411  -0.400  -0.399  -0.397  -0.397  -0.394  -0.390  -0.388
 -0.383  -0.379  -0.379  -0.378  -0.377  -0.367  -0.355  -0.350
 -0.348  -0.335  -0.324  -0.318  -0.297  -0.297  -0.278  -0.273
 -0.273  -0.266  -0.264  -0.263  -0.256  -0.251

          Ground-State Mulliken Net Atomic Charges

     Atom                 Charge (a.u.)
  ----------------------------------------
      1 C                    -0.155611
      2 C                    -0.387791
      3 H                     0.245792
      4 C                     0.084189
      5 C                     0.194109
      6 C                    -0.384036
      7 H                     0.243608
      8 C                    -0.222940
      9 H                     0.247574
     10 C                    -0.344457
     11 H                     0.243837
     12 C                    -0.083816
     13 C                     0.235498
     14 C                     0.188241
     15 C                    -0.378924
     16 H                     0.243486
     17 C                    -0.224328
     18 H                     0.247731
     19 C                    -0.342771
     20 H                     0.243733
     21 C                     0.079050
     22 C                    -0.387954
     23 H                     0.243928
     24 C                    -0.154903
     25 B                     0.683916
     26 C                    -0.156144
     27 C                    -0.390216
     28 H                     0.244494
     29 C                     0.085973
     30 C                     0.194132
     31 C                    -0.384668
     32 H                     0.243764
     33 C                    -0.222785
     34 H                     0.247537
     35 C                    -0.345331
     36 H                     0.243996
     37 C                    -0.082347
     38 C                     0.236912
     39 C                     0.184976
     40 C                    -0.377714
     41 H                     0.243493
     42 C                    -0.224260
     43 H                     0.247836
     44 C                    -0.343111
     45 H                     0.243593
     46 C                     0.078785
     47 C                    -0.387154
     48 H                     0.243534
     49 C                    -0.154906
     50 B                     0.686721
     51 C                    -0.225452
     52 C                     0.057599
     53 C                    -0.360714
     54 H                     0.215579
     55 C                     0.116342
     56 C                    -0.355250
     57 H                     0.215005
     58 C                     0.054698
     59 C                    -0.718300
     60 H                     0.233945
     61 H                     0.235009
     62 H                     0.236748
     63 C                    -0.767167
     64 H                     0.244335
     65 H                     0.245715
     66 H                     0.245765
     67 C                    -0.769022
     68 H                     0.244894
     69 H                     0.246458
     70 H                     0.246440
     71 C                    -0.221377
     72 C                     0.050123
     73 C                    -0.361744
     74 H                     0.216042
     75 C                     0.117053
     76 C                    -0.351318
     77 H                     0.215075
     78 C                     0.053305
     79 C                    -0.718472
     80 H                     0.234295
     81 H                     0.235216
     82 H                     0.236819
     83 C                    -0.765227
     84 H                     0.244061
     85 H                     0.245313
     86 H                     0.245064
     87 C                    -0.767947
     88 H                     0.245024
     89 H                     0.246008
     90 H                     0.245788
  ----------------------------------------
  Sum of atomic charges =    -0.000000

                    Cartesian Multipole Moments
 -----------------------------------------------------------------
    Charge (ESU x 10^10)
                -0.0000
    Dipole Moment (Debye)
         X      -0.0634      Y      -0.0488      Z       0.0021
       Tot       0.0801
    Quadrupole Moments (Debye-Ang)
        XX    -252.1427     XY      -0.0093     YY    -301.9917
        XZ      -8.2956     YZ       1.0084     ZZ    -241.8929

 Total job time:  10111.13s(wall), 45485.62s(cpu)
        *  Thank you very much for using Q-Chem.  Have a nice day.  *
