 Q-Chem 5.0, Q-Chem, Inc., Pleasanton, CA (2017)
 Q-Chem 5.0.1 for Intel X86 EM64T Linux

User input:
--------------------------------------------------------------
$solvent
dielectric      1.0001
dielectric_infi 1.00009
$end

$rem
threads 8
jobtype	sp
method PBEh-3c
basis def2-mSVP
mem_static	1024
mem_total	14000
sym_ignore	true
cis_n_roots             2
cis_singlets            true
cis_triplets		false
rpa                     false
calc_soc 		true
cis_moments             true
cis_relaxed_density	true
solvent_method		pcm
$end

$pcm
StateSpecific   1
ChargeSeparation Excited
$end

$molecule
read sleopt.mol
$end

--------------------------------------------------------------

   15   -1973.6968051204      7.75E-09 Convergence criterion met
 Total energy in the final basis set = -1973.69680512
 Total job time:  5711.17s(wall), 21322.63s(cpu)
        *  Thank you very much for using Q-Chem.  Have a nice day.  *
 Q-Chem 5.0, Q-Chem, Inc., Pleasanton, CA (2017)
 Q-Chem 5.0.1 for Intel X86 EM64T Linux

User input:
--------------------------------------------------------------
$rem
threads 8
jobtype sp
method PBEh-3c
basis def2-mSVP
mem_static      1024
mem_total       14000
sym_ignore      true
cis_n_roots             6
cis_singlets            true
cis_triplets            true
rpa                     false
calc_soc                true
cis_moments             true
cis_relaxed_density     true
solvent_method          pcm
$end

$molecule
read
$end

$pcm
statespecific           Marcus
$end

$solvent
dielectric      1.0001
dielectric_infi 1.00009
$end

--------------------------------------------------------------

             Standard Nuclear Orientation (Angstroms)
    I     Atom           X                Y                Z
 ----------------------------------------------------------------
    1      C       0.0000000000     0.0000000000     0.0000000000
    2      C       0.0000000000     0.0000000000     1.3998220000
    3      H       0.9453129492     0.0000000000     1.9314413338
    4      C      -1.1852562271    -0.0439197277     2.0888531747
    5      C      -1.4489517596    -0.1301941159     3.5051479647
    6      C      -0.6688780495    -0.1631059843     4.6385429699
    7      H       0.4102892303    -0.0933669668     4.5907927612
    8      C      -1.3076881732    -0.2999522293     5.8856047751
    9      H      -0.6982585181    -0.3258752815     6.7795830809
   10      C      -2.6771084762    -0.4101631710     6.0098754350
   11      H      -3.1198312618    -0.5225289057     6.9918933141
   12      C      -2.8495966076    -0.2345597903     3.6387425285
   13      C      -3.5020396618    -0.3847136060     4.8624428916
   14      C      -4.9080499217    -0.5086179928     4.8007005040
   15      H      -5.4813477794    -0.6317727923     5.7111541476
   16      C      -5.5512270427    -0.4815338387     3.5812691760
   17      H      -6.6281028594    -0.5844745154     3.5586130305
   18      C      -4.8664001020    -0.3313133342     2.3577393275
   19      H      -5.4223470614    -0.3259636628     1.4294074136
   20      C      -3.4970747663    -0.2050702002     2.3820892220
   21      C      -2.4495568805    -0.0785550222     1.3859648725
   22      C      -2.4680885394    -0.0303078097     0.0113251352
   23      H      -3.4078400197    -0.0447971910    -0.5290987266
   24      C      -1.2645346554     0.0081436077    -0.7142726667
   25      B       1.3346699437    -0.0887273882    -0.7468569715
   26      C       1.3043301096    -0.1675490420    -2.2767624380
   27      C       2.5018428055    -0.3469931849    -2.9793595804
   28      H       3.4351201777    -0.4018528600    -2.4293957346
   29      C       2.4873186054    -0.4848287392    -4.3451883801
   30      C       3.5519896469    -0.7561964234    -5.2796107755
   31      C       4.9075992657    -0.9689906864    -5.1724165813
   32      H       5.4182574272    -0.9289119725    -4.2186091423
   33      C       5.6304380746    -1.2551227719    -6.3461386209
   34      H       6.6964619185    -1.4254152927    -6.2688368091
   35      C       5.0323159430    -1.3328452811    -7.5874903611
   36      H       5.6342551487    -1.5618121815    -8.4580863750
   37      C       2.9455453837    -0.8372766547    -6.5527035557
   38      C       3.6400280730    -1.1244743701    -7.7265318997
   39      C       2.8590482469    -1.1887288794    -8.9031259832
   40      H       3.3290992486    -1.4059538859    -9.8541546176
   41      C       1.4962474362    -0.9839556169    -8.8434948268
   42      H       0.9210770768    -1.0443563064    -9.7579597843
   43      C       0.8164417929    -0.7072852519    -7.6402599885
   44      H      -0.2564939797    -0.5668138172    -7.6466490606
   45      C       1.5483917116    -0.6304002983    -6.4789758760
   46      C       1.2421841306    -0.4138154702    -5.0800951816
   47      C       0.0583782339    -0.2219534748    -4.4057556659
   48      H      -0.8815639274    -0.1814140816    -4.9441386634
   49      C       0.0476222139    -0.1107548649    -3.0051370698
   50      B      -1.2868358135     0.0007430412    -2.2497708951
   51      C      -2.6527992985     0.0511152635    -3.0296534328
   52      C      -3.2338032397     1.2790013334    -3.3603380463
   53      C      -4.4380966766     1.3147739646    -4.0564604477
   54      H      -4.8752952290     2.2750858432    -4.3096712750
   55      C      -5.0898458481     0.1497107515    -4.4352646617
   56      C      -4.5105802841    -1.0670918979    -4.0936320293
   57      H      -5.0092412225    -1.9894626772    -4.3755174532
   58      C      -3.3089535046    -1.1309752089    -3.4004732135
   59      C      -6.3807647743     0.1896488730    -5.2004317478
   60      H      -6.7459166838     1.2092877191    -5.3189927705
   61      H      -7.1616545763    -0.3841912642    -4.6989985203
   62      H      -6.2638297894    -0.2338516054    -6.1998271539
   63      C      -2.5533688306     2.5579325313    -2.9580916913
   64      H      -3.0952755280     3.4344480323    -3.3132724169
   65      H      -1.5380210727     2.6135164277    -3.3563139372
   66      H      -2.4695877259     2.6401797296    -1.8721075154
   67      C      -2.7110798125    -2.4648846968    -3.0462159661
   68      H      -3.3632698223    -3.2887499939    -3.3364881794
   69      H      -2.5288383513    -2.5497870622    -1.9727955128
   70      H      -1.7484130476    -2.6184499970    -3.5391505082
   71      C       2.6922605825    -0.1770248674     0.0516499432
   72      C       3.2028093314    -1.4219700270     0.4381164045
   73      C       4.3968163218    -1.4959885397     1.1488901097
   74      H       4.7795946023    -2.4694197625     1.4385662391
   75      C       5.1082594532    -0.3569358862     1.4957272577
   76      C       4.5948553350     0.8762397528     1.1108825779
   77      H       5.1362640785     1.7805559904     1.3708258025
   78      C       3.4062605873     0.9778914103     0.3995087813
   79      C       6.3900213337    -0.4463622792     2.2727412947
   80      H       6.7144168831    -1.4796412422     2.3929499936
   81      H       7.1971697076     0.0970937028     1.7793278513
   82      H       6.2811609612    -0.0204904387     3.2721154462
   83      C       2.8751152990     2.3276317389     0.0066394699
   84      H       3.5585514177     3.1290371468     0.2874176476
   85      H       2.7106158584     2.3930923706    -1.0707587363
   86      H       1.9140302399     2.5298350147     0.4847481998
   87      C       2.4615978171    -2.6844835309     0.0939776439
   88      H       2.9911788513    -3.5704489212     0.4448237161
   89      H       2.3226872852    -2.7899696499    -0.9838715215
   90      H       1.4660822169    -2.6976477898     0.5428619474
 ----------------------------------------------------------------

   15   -1973.6968050693      7.75E-09 Convergence criterion met
 Total energy in the final basis set = -1973.69680507

         TDDFT/TDA Excitation Energies
 ---------------------------------------------------

 Excited state   1: excitation energy (eV) =    1.9977
 Total energy for state  1:                 -1973.62339270 au
    Multiplicity: Triplet
    Trans. Mom.:  0.0000 X   0.0000 Y   0.0000 Z
    Strength   :     0.0000000000
    D(167) --> V(  2) amplitude = -0.2583
    D(174) --> V(  1) amplitude =  0.9249

 Excited state   2: excitation energy (eV) =    2.3623
 Total energy for state  2:                 -1973.60999316 au
    Multiplicity: Triplet
    Trans. Mom.:  0.0000 X   0.0000 Y   0.0000 Z
    Strength   :     0.0000000000
    D(171) --> V(  2) amplitude = -0.4393
    D(173) --> V(  1) amplitude =  0.8047

 Excited state   3: excitation energy (eV) =    2.4248
 Total energy for state  3:                 -1973.60769615 au
    Multiplicity: Triplet
    Trans. Mom.:  0.0000 X   0.0000 Y   0.0000 Z
    Strength   :     0.0000000000
    D(171) --> V(  1) amplitude =  0.6588
    D(172) --> V(  1) amplitude = -0.3156
    D(173) --> V(  2) amplitude = -0.5518

 Excited state   4: excitation energy (eV) =    2.5037
 Total energy for state  4:                 -1973.60479399 au
    Multiplicity: Triplet
    Trans. Mom.:  0.0000 X   0.0000 Y   0.0000 Z
    Strength   :     0.0000000000
    D(167) --> V(  1) amplitude =  0.7184
    D(174) --> V(  2) amplitude = -0.5761

 Excited state   5: excitation energy (eV) =    2.6803
 Total energy for state  5:                 -1973.59830560 au
    Multiplicity: Singlet
    Trans. Mom.: -0.0387 X   0.0260 Y   0.0523 Z
    Strength   :     0.0003220849
    D(174) --> V(  1) amplitude =  0.9674

 Excited state   6: excitation energy (eV) =    3.0148
 Total energy for state  6:                 -1973.58601299 au
    Multiplicity: Triplet
    Trans. Mom.:  0.0000 X   0.0000 Y   0.0000 Z
    Strength   :     0.0000000000
    D(171) --> V(  1) amplitude =  0.3842
    D(172) --> V(  1) amplitude =  0.8587

 Excited state   7: excitation energy (eV) =    3.0909
 Total energy for state  7:                 -1973.58321816 au
    Multiplicity: Singlet
    Trans. Mom.: -0.0682 X   0.0149 Y   0.0425 Z
    Strength   :     0.0005056982
    D(171) --> V(  1) amplitude =  0.3725
    D(172) --> V(  1) amplitude =  0.8865

 Excited state   8: excitation energy (eV) =    3.1724
 Total energy for state  8:                 -1973.58022283 au
    Multiplicity: Singlet
    Trans. Mom.:  1.7356 X  -0.1768 Y  -3.0346 Z
    Strength   :     0.9522674800
    D(173) --> V(  1) amplitude =  0.9303

 Excited state   9: excitation energy (eV) =    3.1753
 Total energy for state  9:                 -1973.58011370 au
    Multiplicity: Triplet
    Trans. Mom.:  0.0000 X   0.0000 Y   0.0000 Z
    Strength   :     0.0000000000
    D(170) --> V(  1) amplitude =  0.9535

 Excited state  10: excitation energy (eV) =    3.2103
 Total energy for state 10:                 -1973.57882820 au
    Multiplicity: Singlet
    Trans. Mom.:  0.3264 X  -0.0411 Y  -0.7138 Z
    Strength   :     0.0485872374
    D(170) --> V(  1) amplitude =  0.9470

 Excited state  11: excitation energy (eV) =    3.4568
 Total energy for state 11:                 -1973.56977108 au
    Multiplicity: Singlet
    Trans. Mom.:  0.7573 X  -0.0788 Y   0.4159 Z
    Strength   :     0.0637443873
    D(167) --> V(  1) amplitude = -0.6798
    D(174) --> V(  2) amplitude =  0.6178

 Excited state  12: excitation energy (eV) =    3.4945
 Total energy for state 12:                 -1973.56838426 au
    Multiplicity: Singlet
    Trans. Mom.: -0.1142 X  -0.2524 Y  -0.0494 Z
    Strength   :     0.0067810863
    D(171) --> V(  1) amplitude =  0.8320
    D(172) --> V(  1) amplitude = -0.3587

 ---------------------------------------------------

                    Orbital Energies (a.u.)
 --------------------------------------------------------------

 Alpha MOs
 -- Occupied --
-10.464 -10.464 -10.464 -10.464 -10.464 -10.463 -10.462 -10.462
-10.462 -10.462 -10.462 -10.462 -10.460 -10.460 -10.460 -10.460
-10.459 -10.459 -10.459 -10.459 -10.458 -10.458 -10.451 -10.451
-10.449 -10.449 -10.446 -10.446 -10.446 -10.445 -10.445 -10.445
-10.444 -10.444 -10.433 -10.432 -10.431 -10.431 -10.428 -10.428
-10.428 -10.428 -10.428 -10.427 -10.423 -10.423 -10.423 -10.422
-10.416 -10.415  -6.940  -6.939  -1.013  -1.012  -0.958  -0.954
 -0.953  -0.951  -0.933  -0.932  -0.904  -0.895  -0.870  -0.866
 -0.865  -0.865  -0.855  -0.854  -0.847  -0.846  -0.815  -0.812
 -0.810  -0.796  -0.778  -0.778  -0.757  -0.754  -0.754  -0.754
 -0.731  -0.729  -0.728  -0.717  -0.687  -0.681  -0.676  -0.665
 -0.648  -0.641  -0.636  -0.636  -0.636  -0.634  -0.596  -0.592
 -0.589  -0.588  -0.582  -0.575  -0.573  -0.549  -0.544  -0.541
 -0.538  -0.537  -0.526  -0.526  -0.519  -0.507  -0.500  -0.498
 -0.493  -0.492  -0.491  -0.485  -0.481  -0.481  -0.479  -0.478
 -0.478  -0.477  -0.474  -0.466  -0.464  -0.463  -0.462  -0.461
 -0.460  -0.459  -0.453  -0.453  -0.448  -0.447  -0.444  -0.443
 -0.442  -0.437  -0.432  -0.426  -0.424  -0.419  -0.414  -0.410
 -0.409  -0.399  -0.398  -0.394  -0.394  -0.393  -0.389  -0.386
 -0.379  -0.377  -0.376  -0.376  -0.373  -0.363  -0.351  -0.346
 -0.344  -0.332  -0.320  -0.314  -0.295  -0.294  -0.274  -0.269
 -0.268  -0.262  -0.260  -0.259  -0.253  -0.247

          Ground-State Mulliken Net Atomic Charges

     Atom                 Charge (a.u.)
  ----------------------------------------
      1 C                    -0.152581
      2 C                    -0.380288
      3 H                     0.236349
      4 C                     0.080106
      5 C                     0.199695
      6 C                    -0.369702
      7 H                     0.222101
      8 C                    -0.205834
      9 H                     0.226552
     10 C                    -0.331903
     11 H                     0.220157
     12 C                    -0.077679
     13 C                     0.254864
     14 C                    -0.335759
     15 H                     0.220524
     16 C                    -0.203079
     17 H                     0.226261
     18 C                    -0.378454
     19 H                     0.221858
     20 C                     0.201109
     21 C                     0.106750
     22 C                    -0.392136
     23 H                     0.235363
     24 C                    -0.153895
     25 B                     0.687282
     26 C                    -0.152645
     27 C                    -0.383412
     28 H                     0.235588
     29 C                     0.083042
     30 C                     0.200327
     31 C                    -0.369531
     32 H                     0.222473
     33 C                    -0.205512
     34 H                     0.226681
     35 C                    -0.332794
     36 H                     0.220220
     37 C                    -0.078900
     38 C                     0.255026
     39 C                    -0.335676
     40 H                     0.220530
     41 C                    -0.203764
     42 H                     0.226400
     43 C                    -0.376017
     44 H                     0.222050
     45 C                     0.200450
     46 C                     0.104019
     47 C                    -0.390472
     48 H                     0.235218
     49 C                    -0.153295
     50 B                     0.689767
     51 C                    -0.221328
     52 C                     0.064213
     53 C                    -0.343857
     54 H                     0.196019
     55 C                     0.130661
     56 C                    -0.337655
     57 H                     0.195895
     58 C                     0.057547
     59 C                    -0.709489
     60 H                     0.225917
     61 H                     0.228564
     62 H                     0.230257
     63 C                    -0.760576
     64 H                     0.233849
     65 H                     0.243370
     66 H                     0.244477
     67 C                    -0.756167
     68 H                     0.232872
     69 H                     0.243195
     70 H                     0.243865
     71 C                    -0.227471
     72 C                     0.058553
     73 C                    -0.343626
     74 H                     0.196107
     75 C                     0.130579
     76 C                    -0.336098
     77 H                     0.196231
     78 C                     0.064758
     79 C                    -0.709523
     80 H                     0.225739
     81 H                     0.228748
     82 H                     0.230681
     83 C                    -0.756622
     84 H                     0.233205
     85 H                     0.243808
     86 H                     0.241658
     87 C                    -0.757857
     88 H                     0.233330
     89 H                     0.244046
     90 H                     0.244690
  ----------------------------------------
  Sum of atomic charges =    -0.000000

                    Cartesian Multipole Moments
 -----------------------------------------------------------------
    Charge (ESU x 10^10)
                -0.0000
    Dipole Moment (Debye)
         X       0.0576      Y      -0.8038      Z       0.0866
       Tot       0.8104
    Quadrupole Moments (Debye-Ang)
        XX    -262.1374     XY      -1.3362     YY    -301.7515
        XZ      -5.4401     YZ       3.7977     ZZ    -254.2344

 Total job time:  7722.45s(wall), 33624.03s(cpu)
        *  Thank you very much for using Q-Chem.  Have a nice day.  *
