 Q-Chem 5.0, Q-Chem, Inc., Pleasanton, CA (2017)
 Q-Chem 5.0.1 for Intel X86 EM64T Linux

User input:
--------------------------------------------------------------
$solvent
dielectric      8.93
dielectric_infi 2.03
$end

$rem
threads 8
jobtype	sp
method PBEh-3c
basis def2-mSVP
mem_static	1024
mem_total	14000
sym_ignore	true
cis_n_roots             2
cis_singlets            true
cis_triplets		false
rpa                     false
calc_soc 		true
cis_moments             true
cis_relaxed_density	true
solvent_method		pcm
$end

$pcm
StateSpecific   1
ChargeSeparation Excited
$end

$molecule
read sleopt.mol
$end

--------------------------------------------------------------

   14   -1973.7208415672      7.33E-09 Convergence criterion met
 Total energy in the final basis set = -1973.72084157
 Total job time:  4984.14s(wall), 16448.81s(cpu)
        *  Thank you very much for using Q-Chem.  Have a nice day.  *
 Q-Chem 5.0, Q-Chem, Inc., Pleasanton, CA (2017)
 Q-Chem 5.0.1 for Intel X86 EM64T Linux

User input:
--------------------------------------------------------------
$rem
threads 8
jobtype sp
method PBEh-3c
basis def2-mSVP
mem_static      1024
mem_total       14000
sym_ignore      true
cis_n_roots             6
cis_singlets            true
cis_triplets            true
rpa                     false
calc_soc                true
cis_moments             true
cis_relaxed_density     true
solvent_method          pcm
$end

$molecule
read
$end

$pcm
statespecific           Marcus
$end

$solvent
dielectric      8.93
dielectric_infi 2.03
$end

--------------------------------------------------------------

             Standard Nuclear Orientation (Angstroms)
    I     Atom           X                Y                Z
 ----------------------------------------------------------------
    1      C       0.0000000000     0.0000000000     0.0000000000
    2      C       0.0000000000     0.0000000000     1.3998220000
    3      H       0.9453129492     0.0000000000     1.9314413338
    4      C      -1.1852562271    -0.0439197277     2.0888531747
    5      C      -1.4489517596    -0.1301941159     3.5051479647
    6      C      -0.6688780495    -0.1631059843     4.6385429699
    7      H       0.4102892303    -0.0933669668     4.5907927612
    8      C      -1.3076881732    -0.2999522293     5.8856047751
    9      H      -0.6982585181    -0.3258752815     6.7795830809
   10      C      -2.6771084762    -0.4101631710     6.0098754350
   11      H      -3.1198312618    -0.5225289057     6.9918933141
   12      C      -2.8495966076    -0.2345597903     3.6387425285
   13      C      -3.5020396618    -0.3847136060     4.8624428916
   14      C      -4.9080499217    -0.5086179928     4.8007005040
   15      H      -5.4813477794    -0.6317727923     5.7111541476
   16      C      -5.5512270427    -0.4815338387     3.5812691760
   17      H      -6.6281028594    -0.5844745154     3.5586130305
   18      C      -4.8664001020    -0.3313133342     2.3577393275
   19      H      -5.4223470614    -0.3259636628     1.4294074136
   20      C      -3.4970747663    -0.2050702002     2.3820892220
   21      C      -2.4495568805    -0.0785550222     1.3859648725
   22      C      -2.4680885394    -0.0303078097     0.0113251352
   23      H      -3.4078400197    -0.0447971910    -0.5290987266
   24      C      -1.2645346554     0.0081436077    -0.7142726667
   25      B       1.3346699437    -0.0887273882    -0.7468569715
   26      C       1.3043301096    -0.1675490420    -2.2767624380
   27      C       2.5018428055    -0.3469931849    -2.9793595804
   28      H       3.4351201777    -0.4018528600    -2.4293957346
   29      C       2.4873186054    -0.4848287392    -4.3451883801
   30      C       3.5519896469    -0.7561964234    -5.2796107755
   31      C       4.9075992657    -0.9689906864    -5.1724165813
   32      H       5.4182574272    -0.9289119725    -4.2186091423
   33      C       5.6304380746    -1.2551227719    -6.3461386209
   34      H       6.6964619185    -1.4254152927    -6.2688368091
   35      C       5.0323159430    -1.3328452811    -7.5874903611
   36      H       5.6342551487    -1.5618121815    -8.4580863750
   37      C       2.9455453837    -0.8372766547    -6.5527035557
   38      C       3.6400280730    -1.1244743701    -7.7265318997
   39      C       2.8590482469    -1.1887288794    -8.9031259832
   40      H       3.3290992486    -1.4059538859    -9.8541546176
   41      C       1.4962474362    -0.9839556169    -8.8434948268
   42      H       0.9210770768    -1.0443563064    -9.7579597843
   43      C       0.8164417929    -0.7072852519    -7.6402599885
   44      H      -0.2564939797    -0.5668138172    -7.6466490606
   45      C       1.5483917116    -0.6304002983    -6.4789758760
   46      C       1.2421841306    -0.4138154702    -5.0800951816
   47      C       0.0583782339    -0.2219534748    -4.4057556659
   48      H      -0.8815639274    -0.1814140816    -4.9441386634
   49      C       0.0476222139    -0.1107548649    -3.0051370698
   50      B      -1.2868358135     0.0007430412    -2.2497708951
   51      C      -2.6527992985     0.0511152635    -3.0296534328
   52      C      -3.2338032397     1.2790013334    -3.3603380463
   53      C      -4.4380966766     1.3147739646    -4.0564604477
   54      H      -4.8752952290     2.2750858432    -4.3096712750
   55      C      -5.0898458481     0.1497107515    -4.4352646617
   56      C      -4.5105802841    -1.0670918979    -4.0936320293
   57      H      -5.0092412225    -1.9894626772    -4.3755174532
   58      C      -3.3089535046    -1.1309752089    -3.4004732135
   59      C      -6.3807647743     0.1896488730    -5.2004317478
   60      H      -6.7459166838     1.2092877191    -5.3189927705
   61      H      -7.1616545763    -0.3841912642    -4.6989985203
   62      H      -6.2638297894    -0.2338516054    -6.1998271539
   63      C      -2.5533688306     2.5579325313    -2.9580916913
   64      H      -3.0952755280     3.4344480323    -3.3132724169
   65      H      -1.5380210727     2.6135164277    -3.3563139372
   66      H      -2.4695877259     2.6401797296    -1.8721075154
   67      C      -2.7110798125    -2.4648846968    -3.0462159661
   68      H      -3.3632698223    -3.2887499939    -3.3364881794
   69      H      -2.5288383513    -2.5497870622    -1.9727955128
   70      H      -1.7484130476    -2.6184499970    -3.5391505082
   71      C       2.6922605825    -0.1770248674     0.0516499432
   72      C       3.2028093314    -1.4219700270     0.4381164045
   73      C       4.3968163218    -1.4959885397     1.1488901097
   74      H       4.7795946023    -2.4694197625     1.4385662391
   75      C       5.1082594532    -0.3569358862     1.4957272577
   76      C       4.5948553350     0.8762397528     1.1108825779
   77      H       5.1362640785     1.7805559904     1.3708258025
   78      C       3.4062605873     0.9778914103     0.3995087813
   79      C       6.3900213337    -0.4463622792     2.2727412947
   80      H       6.7144168831    -1.4796412422     2.3929499936
   81      H       7.1971697076     0.0970937028     1.7793278513
   82      H       6.2811609612    -0.0204904387     3.2721154462
   83      C       2.8751152990     2.3276317389     0.0066394699
   84      H       3.5585514177     3.1290371468     0.2874176476
   85      H       2.7106158584     2.3930923706    -1.0707587363
   86      H       1.9140302399     2.5298350147     0.4847481998
   87      C       2.4615978171    -2.6844835309     0.0939776439
   88      H       2.9911788513    -3.5704489212     0.4448237161
   89      H       2.3226872852    -2.7899696499    -0.9838715215
   90      H       1.4660822169    -2.6976477898     0.5428619474
 ----------------------------------------------------------------

   15   -1973.7205781980      5.16E-09 Convergence criterion met
 Total energy in the final basis set = -1973.72057820

         TDDFT/TDA Excitation Energies
 ---------------------------------------------------

 Excited state   1: excitation energy (eV) =    2.0319
 Total energy for state  1:                 -1973.64590754 au
    Multiplicity: Triplet
    Trans. Mom.:  0.0000 X   0.0000 Y   0.0000 Z
    Strength   :     0.0000000000
    D(167) --> V(  2) amplitude = -0.2515
    D(174) --> V(  1) amplitude =  0.9244

 Excited state   2: excitation energy (eV) =    2.3552
 Total energy for state  2:                 -1973.63402731 au
    Multiplicity: Triplet
    Trans. Mom.:  0.0000 X   0.0000 Y   0.0000 Z
    Strength   :     0.0000000000
    D(172) --> V(  2) amplitude =  0.4695
    D(173) --> V(  1) amplitude =  0.8142

 Excited state   3: excitation energy (eV) =    2.4232
 Total energy for state  3:                 -1973.63152547 au
    Multiplicity: Triplet
    Trans. Mom.:  0.0000 X   0.0000 Y   0.0000 Z
    Strength   :     0.0000000000
    D(172) --> V(  1) amplitude =  0.7429
    D(172) --> V(  4) amplitude = -0.2253
    D(173) --> V(  2) amplitude =  0.5428

 Excited state   4: excitation energy (eV) =    2.5466
 Total energy for state  4:                 -1973.62699276 au
    Multiplicity: Triplet
    Trans. Mom.:  0.0000 X   0.0000 Y   0.0000 Z
    Strength   :     0.0000000000
    D(167) --> V(  1) amplitude =  0.7256
    D(174) --> V(  2) amplitude = -0.5637

 Excited state   5: excitation energy (eV) =    2.6927
 Total energy for state  5:                 -1973.62162500 au
    Multiplicity: Singlet
    Trans. Mom.: -0.0583 X   0.0337 Y   0.0801 Z
    Strength   :     0.0007223957
    D(174) --> V(  1) amplitude =  0.9671

 Excited state   6: excitation energy (eV) =    3.0382
 Total energy for state  6:                 -1973.60892684 au
    Multiplicity: Triplet
    Trans. Mom.:  0.0000 X   0.0000 Y   0.0000 Z
    Strength   :     0.0000000000
    D(171) --> V(  1) amplitude =  0.9378

 Excited state   7: excitation energy (eV) =    3.0660
 Total energy for state  7:                 -1973.60790361 au
    Multiplicity: Singlet
    Trans. Mom.:  2.0800 X  -0.2167 Y  -3.6632 Z
    Strength   :     1.3364986264
    D(173) --> V(  1) amplitude =  0.9548

 Excited state   8: excitation energy (eV) =    3.1148
 Total energy for state  8:                 -1973.60610969 au
    Multiplicity: Singlet
    Trans. Mom.:  0.0347 X   0.0097 Y  -0.1527 Z
    Strength   :     0.0018772521
    D(171) --> V(  1) amplitude =  0.9524

 Excited state   9: excitation energy (eV) =    3.2007
 Total energy for state  9:                 -1973.60295389 au
    Multiplicity: Triplet
    Trans. Mom.:  0.0000 X   0.0000 Y   0.0000 Z
    Strength   :     0.0000000000
    D(170) --> V(  1) amplitude =  0.9598

 Excited state  10: excitation energy (eV) =    3.2344
 Total energy for state 10:                 -1973.60171612 au
    Multiplicity: Singlet
    Trans. Mom.:  0.0266 X  -0.0130 Y  -0.2198 Z
    Strength   :     0.0038968931
    D(170) --> V(  1) amplitude =  0.9707

 Excited state  11: excitation energy (eV) =    3.3955
 Total energy for state 11:                 -1973.59579672 au
    Multiplicity: Singlet
    Trans. Mom.: -0.1300 X   0.3356 Y  -0.0950 Z
    Strength   :     0.0115248972
    D(172) --> V(  1) amplitude =  0.9264

 Excited state  12: excitation energy (eV) =    3.4817
 Total energy for state 12:                 -1973.59262865 au
    Multiplicity: Singlet
    Trans. Mom.: -0.9360 X   0.0010 Y  -0.5169 Z
    Strength   :     0.0975207923
    D(167) --> V(  1) amplitude =  0.7536
    D(174) --> V(  2) amplitude = -0.5624

 ---------------------------------------------------

                    Orbital Energies (a.u.)
 --------------------------------------------------------------

 Alpha MOs
 -- Occupied --
-10.469 -10.468 -10.467 -10.467 -10.466 -10.466 -10.466 -10.466
-10.466 -10.465 -10.464 -10.463 -10.462 -10.462 -10.462 -10.462
-10.462 -10.462 -10.458 -10.458 -10.458 -10.458 -10.458 -10.458
-10.456 -10.455 -10.453 -10.453 -10.453 -10.452 -10.451 -10.451
-10.450 -10.450 -10.440 -10.440 -10.439 -10.438 -10.434 -10.434
-10.434 -10.434 -10.428 -10.428 -10.428 -10.427 -10.427 -10.427
-10.424 -10.423  -6.947  -6.947  -1.018  -1.017  -0.964  -0.960
 -0.959  -0.958  -0.935  -0.935  -0.909  -0.900  -0.875  -0.872
 -0.871  -0.871  -0.860  -0.859  -0.849  -0.848  -0.821  -0.816
 -0.814  -0.801  -0.782  -0.782  -0.762  -0.760  -0.760  -0.759
 -0.735  -0.731  -0.730  -0.720  -0.689  -0.686  -0.679  -0.670
 -0.653  -0.646  -0.642  -0.642  -0.640  -0.639  -0.598  -0.593
 -0.592  -0.588  -0.584  -0.577  -0.576  -0.554  -0.549  -0.544
 -0.543  -0.543  -0.527  -0.527  -0.523  -0.511  -0.503  -0.502
 -0.497  -0.496  -0.494  -0.488  -0.488  -0.487  -0.482  -0.481
 -0.481  -0.481  -0.476  -0.467  -0.467  -0.466  -0.466  -0.465
 -0.464  -0.461  -0.458  -0.457  -0.451  -0.451  -0.447  -0.445
 -0.442  -0.441  -0.434  -0.433  -0.428  -0.425  -0.419  -0.413
 -0.413  -0.402  -0.399  -0.398  -0.398  -0.394  -0.392  -0.390
 -0.386  -0.382  -0.382  -0.381  -0.380  -0.370  -0.358  -0.353
 -0.351  -0.339  -0.327  -0.321  -0.298  -0.298  -0.281  -0.277
 -0.277  -0.270  -0.267  -0.265  -0.258  -0.254

          Ground-State Mulliken Net Atomic Charges

     Atom                 Charge (a.u.)
  ----------------------------------------
      1 C                    -0.154628
      2 C                    -0.383852
      3 H                     0.250177
      4 C                     0.063961
      5 C                     0.180970
      6 C                    -0.382202
      7 H                     0.255129
      8 C                    -0.235174
      9 H                     0.260565
     10 C                    -0.346195
     11 H                     0.258261
     12 C                    -0.081369
     13 C                     0.224818
     14 C                    -0.349682
     15 H                     0.258549
     16 C                    -0.232828
     17 H                     0.260104
     18 C                    -0.390555
     19 H                     0.255103
     20 C                     0.182021
     21 C                     0.090163
     22 C                    -0.395588
     23 H                     0.248808
     24 C                    -0.155544
     25 B                     0.672488
     26 C                    -0.153870
     27 C                    -0.387517
     28 H                     0.249574
     29 C                     0.066783
     30 C                     0.181529
     31 C                    -0.381850
     32 H                     0.255570
     33 C                    -0.234843
     34 H                     0.260653
     35 C                    -0.347029
     36 H                     0.258217
     37 C                    -0.082516
     38 C                     0.225172
     39 C                    -0.349704
     40 H                     0.258482
     41 C                    -0.233492
     42 H                     0.260300
     43 C                    -0.388048
     44 H                     0.255382
     45 C                     0.181494
     46 C                     0.087500
     47 C                    -0.394380
     48 H                     0.248967
     49 C                    -0.155252
     50 B                     0.674731
     51 C                    -0.218187
     52 C                     0.049185
     53 C                    -0.372809
     54 H                     0.227755
     55 C                     0.108171
     56 C                    -0.361582
     57 H                     0.226111
     58 C                     0.046460
     59 C                    -0.723262
     60 H                     0.239232
     61 H                     0.239251
     62 H                     0.240460
     63 C                    -0.774320
     64 H                     0.252050
     65 H                     0.246610
     66 H                     0.247000
     67 C                    -0.770652
     68 H                     0.251204
     69 H                     0.245993
     70 H                     0.246925
     71 C                    -0.224278
     72 C                     0.046794
     73 C                    -0.372071
     74 H                     0.227858
     75 C                     0.108441
     76 C                    -0.360532
     77 H                     0.226267
     78 C                     0.051136
     79 C                    -0.723255
     80 H                     0.239255
     81 H                     0.239224
     82 H                     0.240791
     83 C                    -0.770976
     84 H                     0.251318
     85 H                     0.246404
     86 H                     0.245623
     87 C                    -0.772033
     88 H                     0.251735
     89 H                     0.246687
     90 H                     0.246663
  ----------------------------------------
  Sum of atomic charges =    -0.000000

                    Cartesian Multipole Moments
 -----------------------------------------------------------------
    Charge (ESU x 10^10)
                -0.0000
    Dipole Moment (Debye)
         X       0.0922      Y      -1.1826      Z       0.1272
       Tot       1.1930
    Quadrupole Moments (Debye-Ang)
        XX    -246.8977     XY      -1.9234     YY    -299.3008
        XZ      -9.8322     YZ       5.3822     ZZ    -233.4105

 Total job time:  8173.11s(wall), 34017.40s(cpu)
        *  Thank you very much for using Q-Chem.  Have a nice day.  *
