 Q-Chem 5.1, Q-Chem, Inc., Pleasanton, CA (2018)
 Q-Chem 5.1.1 for Intel X86 EM64T Linux

User input:
--------------------------------------------------------------
$solvent
dielectric      1.0001
dielectric_infi 1.00009
$end

$rem
threads 8
jobtype	sp
method PBEh-3c
basis def2-mSVP
mem_static	1024
mem_total	14000
sym_ignore	true
cis_n_roots             2
cis_singlets            true
cis_triplets		false
rpa                     false
calc_soc 		true
cis_moments             true
cis_relaxed_density	true
solvent_method		pcm
$end

$pcm
StateSpecific   1
ChargeSeparation Excited
$end

$molecule
read sleopt.mol
$end

--------------------------------------------------------------

   15   -1973.6977762801      7.83e-09  Convergence criterion met
 Total energy in the final basis set =    -1973.6977762801

         TDDFT/TDA Excitation Energies
 ---------------------------------------------------

 Excited state   1: excitation energy (eV) =    2.6741
 Total energy for state  1:                 -1973.59950623 au
    Multiplicity: Singlet
    Trans. Mom.:  0.0558 X  -0.0016 Y  -0.1005 Z
    Strength   :     0.0008655682
    D(174) --> V(  1) amplitude =  0.9666

 Excited state   2: excitation energy (eV) =    3.0865
 Total energy for state  2:                 -1973.58434948 au
    Multiplicity: Singlet
    Trans. Mom.:  0.2073 X  -0.0075 Y  -0.3629 Z
    Strength   :     0.0132126611
    D(172) --> V(  1) amplitude = -0.9476

 ---------------------------------------------------

                    Orbital Energies (a.u.)
 --------------------------------------------------------------

 Alpha MOs
 -- Occupied --
-10.465 -10.464 -10.464 -10.464 -10.464 -10.463 -10.462 -10.462
-10.462 -10.462 -10.461 -10.461 -10.460 -10.460 -10.460 -10.459
-10.459 -10.459 -10.459 -10.459 -10.459 -10.458 -10.450 -10.450
-10.450 -10.450 -10.446 -10.446 -10.446 -10.445 -10.445 -10.445
-10.444 -10.444 -10.432 -10.432 -10.432 -10.431 -10.428 -10.428
-10.428 -10.428 -10.428 -10.427 -10.423 -10.423 -10.423 -10.423
-10.416 -10.414  -6.941  -6.938  -1.012  -1.012  -0.958  -0.954
 -0.953  -0.951  -0.933  -0.932  -0.904  -0.895  -0.870  -0.866
 -0.865  -0.865  -0.855  -0.854  -0.847  -0.847  -0.815  -0.812
 -0.810  -0.796  -0.778  -0.778  -0.756  -0.754  -0.754  -0.754
 -0.731  -0.729  -0.729  -0.717  -0.687  -0.681  -0.676  -0.665
 -0.648  -0.641  -0.636  -0.636  -0.636  -0.634  -0.596  -0.592
 -0.588  -0.588  -0.582  -0.575  -0.573  -0.549  -0.544  -0.541
 -0.538  -0.537  -0.526  -0.526  -0.519  -0.507  -0.500  -0.498
 -0.493  -0.492  -0.491  -0.485  -0.481  -0.481  -0.479  -0.478
 -0.478  -0.477  -0.474  -0.466  -0.464  -0.463  -0.462  -0.461
 -0.460  -0.459  -0.453  -0.453  -0.448  -0.447  -0.444  -0.443
 -0.442  -0.437  -0.432  -0.426  -0.424  -0.418  -0.414  -0.410
 -0.409  -0.399  -0.398  -0.394  -0.394  -0.393  -0.389  -0.386
 -0.379  -0.377  -0.376  -0.376  -0.373  -0.363  -0.352  -0.346
 -0.344  -0.332  -0.320  -0.314  -0.295  -0.294  -0.274  -0.269
 -0.268  -0.262  -0.260  -0.260  -0.253  -0.246

          Ground-State Mulliken Net Atomic Charges

     Atom                 Charge (a.u.)
  ----------------------------------------
      1 C                    -0.154046
      2 C                    -0.386174
      3 H                     0.236966
      4 C                     0.095120
      5 C                     0.206036
      6 C                    -0.376228
      7 H                     0.222247
      8 C                    -0.203872
      9 H                     0.226433
     10 C                    -0.334746
     11 H                     0.220366
     12 C                    -0.080833
     13 C                     0.254432
     14 C                     0.200101
     15 C                    -0.370893
     16 H                     0.221987
     17 C                    -0.205409
     18 H                     0.226572
     19 C                    -0.332898
     20 H                     0.220247
     21 C                     0.090091
     22 C                    -0.385885
     23 H                     0.234406
     24 C                    -0.153199
     25 B                     0.689037
     26 C                    -0.154602
     27 C                    -0.388247
     28 H                     0.235328
     29 C                     0.096904
     30 C                     0.206106
     31 C                    -0.376915
     32 H                     0.222307
     33 C                    -0.203721
     34 H                     0.226435
     35 C                    -0.335640
     36 H                     0.220546
     37 C                    -0.079381
     38 C                     0.255823
     39 C                     0.196854
     40 C                    -0.369638
     41 H                     0.221915
     42 C                    -0.205338
     43 H                     0.226663
     44 C                    -0.333224
     45 H                     0.220154
     46 C                     0.089875
     47 C                    -0.384866
     48 H                     0.233854
     49 C                    -0.153366
     50 B                     0.691567
     51 C                    -0.226647
     52 C                     0.064351
     53 C                    -0.342618
     54 H                     0.195635
     55 C                     0.130084
     56 C                    -0.339827
     57 H                     0.196206
     58 C                     0.063269
     59 C                    -0.709352
     60 H                     0.225503
     61 H                     0.228538
     62 H                     0.230599
     63 C                    -0.757901
     64 H                     0.233197
     65 H                     0.243364
     66 H                     0.243513
     67 C                    -0.760213
     68 H                     0.233596
     69 H                     0.244427
     70 H                     0.244423
     71 C                    -0.222305
     72 C                     0.058381
     73 C                    -0.343530
     74 H                     0.196065
     75 C                     0.130709
     76 C                    -0.335893
     77 H                     0.196187
     78 C                     0.060517
     79 C                    -0.709519
     80 H                     0.225919
     81 H                     0.228635
     82 H                     0.230651
     83 C                    -0.755908
     84 H                     0.232884
     85 H                     0.242953
     86 H                     0.242607
     87 C                    -0.759075
     88 H                     0.233784
     89 H                     0.243856
     90 H                     0.243682
  ----------------------------------------
  Sum of atomic charges =    -0.000000

                    Cartesian Multipole Moments
 -----------------------------------------------------------------
    Charge (ESU x 10^10)
                -0.0000
    Dipole Moment (Debye)
         X      -0.0488      Y      -0.0321      Z      -0.0003
       Tot       0.0584
    Quadrupole Moments (Debye-Ang)
        XX    -261.1149     XY       0.0141     YY    -303.2623
        XZ      -6.3504     YZ       0.8327     ZZ    -253.2157

 Total job time:  5640.12s(wall), 24996.87s(cpu)
        *  Thank you very much for using Q-Chem.  Have a nice day.  *
 Q-Chem 5.1, Q-Chem, Inc., Pleasanton, CA (2018)
 Q-Chem 5.1.1 for Intel X86 EM64T Linux

User input:
--------------------------------------------------------------
$rem
threads 8
jobtype sp
method PBEh-3c
basis def2-mSVP
mem_static      1024
mem_total       14000
sym_ignore      true
cis_n_roots             6
cis_singlets            true
cis_triplets            true
rpa                     false
calc_soc                true
cis_moments             true
cis_relaxed_density     true
solvent_method          pcm
$end

$molecule
read
$end

$pcm
statespecific           Marcus
$end

$solvent
dielectric      1.0001
dielectric_infi 1.00009
$end

--------------------------------------------------------------

             Standard Nuclear Orientation (Angstroms)
    I     Atom           X                Y                Z
 ----------------------------------------------------------------
    1      C       0.0000000000     0.0000000000     0.0000000000
    2      C       0.0000000000     0.0000000000     1.4037220000
    3      H       0.9462457046     0.0000000000     1.9327659869
    4      C      -1.1850633206     0.0003253890     2.0958139739
    5      C      -1.4814842285    -0.0020402523     3.5131552233
    6      C      -0.7396211501    -0.0080188143     4.6713874514
    7      H       0.3424255854    -0.0124060693     4.6551802443
    8      C      -1.4224302876    -0.0084412662     5.9043866319
    9      H      -0.8398875981    -0.0130816119     6.8162790284
   10      C      -2.7985605838    -0.0033049059     5.9965106466
   11      H      -3.2723394995    -0.0039252042     6.9702791286
   12      C      -2.8906031052     0.0029884662     3.6189004427
   13      C      -3.5898861758     0.0026898770     4.8254834397
   14      C      -3.5119972230     0.0083582241     2.3491019523
   15      C      -4.8871147803     0.0140067004     2.2848800812
   16      H      -5.4136788736     0.0185134524     1.3390696719
   17      C      -5.6132047370     0.0139923924     3.4915286913
   18      H      -6.6944641488     0.0185480770     3.4446904351
   19      C      -5.0004592970     0.0083979897     4.7275393523
   20      H      -5.6053758856     0.0085383282     5.6258262862
   21      C      -2.4431101409     0.0063510034     1.3775118683
   22      C      -2.4632755512     0.0112739908     0.0028855855
   23      H      -3.4073162134     0.0200974160    -0.5315261281
   24      C      -1.2622557414     0.0060431628    -0.7206287282
   25      B       1.3354873671    -0.0013188506    -0.7504349388
   26      C       1.3172456190    -0.0371019297    -2.2823124891
   27      C       2.5288765043    -0.0703889111    -2.9920002025
   28      H       3.4630799770    -0.0715409907    -2.4414695740
   29      C       2.5278000936    -0.1001021727    -4.3655244269
   30      C       3.5968326457    -0.1366127362    -5.3421380961
   31      C       4.9710055145    -0.1570128358    -5.2923453902
   32      H       5.5076136810    -0.1471754082    -4.3525659845
   33      C       5.6840565765    -0.1914092370    -6.5078999028
   34      H       6.7653713458    -0.2073837742    -6.4701624406
   35      C       5.0631891169    -0.2054789806    -7.7395322623
   36      H       5.6607740470    -0.2318834776    -8.6421615800
   37      C       2.9715633033    -0.1513290415    -6.6096499331
   38      C       3.6521487867    -0.1852052081    -7.8252872054
   39      C       1.5626309885    -0.1264195547    -6.4967246537
   40      C       0.8037597377    -0.1359921117    -7.6448774134
   41      H      -0.2782173661    -0.1175540302    -7.6136039181
   42      C       1.4704996075    -0.1700969263    -8.8843337297
   43      H       0.8787630842    -0.1774905704    -9.7904862537
   44      C       2.8463484210    -0.1942375427    -8.9876007525
   45      H       3.3090523765    -0.2200128432    -9.9663200359
   46      C       1.2696166416    -0.0936599931    -5.0839149331
   47      C       0.0734697282    -0.0570267727    -4.4062960322
   48      H      -0.8656519760    -0.0474232318    -4.9491262302
   49      C       0.0548626586    -0.0300317839    -3.0052666092
   50      B      -1.2873950374     0.0125097398    -2.2562313509
   51      C       2.6916999029     0.0510705853     0.0456101650
   52      C       3.3353774494    -1.1233413755     0.4468745644
   53      C       4.5324727932    -1.0527083773     1.1529232844
   54      H       5.0237757080    -1.9713615884     1.4568544064
   55      C       5.1124612168     0.1661285787     1.4756070115
   56      C       4.4639992434     1.3289302249     1.0744846891
   57      H       4.9020247742     2.2921860312     1.3172029439
   58      C       3.2685120643     1.2862412883     0.3701914297
   59      C       6.3984740544     0.2387230647     2.2467403201
   60      H       6.8390029418    -0.7478745123     2.3863282531
   61      H       7.1363800299     0.8601660106     1.7370255048
   62      H       6.2445633411     0.6718237121     3.2370054354
   63      C       2.7268590735    -2.4571247426     0.1142558649
   64      H       3.3345133969    -3.2835301453     0.4827741085
   65      H       2.6115563852    -2.5863904963    -0.9641897938
   66      H       1.7300224086    -2.5596323123     0.5490803579
   67      C       2.5860778163     2.5607560169    -0.0439119151
   68      H       3.1492622722     3.4410597663     0.2660419828
   69      H       2.4598050925     2.6142239890    -1.1275471950
   70      H       1.5872811131     2.6378707386     0.3916112574
   71      C      -2.6569919005     0.0780061617    -3.0381824146
   72      C      -3.2248506567     1.3141448052    -3.3670542993
   73      C      -4.4390904405     1.3674293574    -4.0446024170
   74      H      -4.8645958154     2.3349607770    -4.2907422920
   75      C      -5.1175032669     0.2150728386    -4.4124903308
   76      C      -4.5502898745    -1.0098693844    -4.0804516055
   77      H      -5.0660530788    -1.9248545036    -4.3550113359
   78      C      -3.3400202459    -1.0908912797    -3.4040612811
   79      C      -6.4213794664     0.2806458733    -5.1546473378
   80      H      -6.7733619859     1.3067562245    -5.2571882806
   81      H      -7.2016516760    -0.2860363941    -4.6442939382
   82      H      -6.3290417067    -0.1350018816    -6.1598586112
   83      C      -2.7631088361    -2.4341078184    -3.0559447912
   84      H      -3.3881777324    -3.2489936968    -3.4211755134
   85      H      -1.7664994111    -2.5640597385    -3.4828242068
   86      H      -2.6601657580    -2.5553374305    -1.9753912193
   87      C      -2.5275777780     2.5899685497    -2.9847605184
   88      H      -3.0779904444     3.4677322738    -3.3237282333
   89      H      -1.5253246921     2.6427561731    -3.4148999087
   90      H      -2.4108596523     2.6725475818    -1.9019623519
 ----------------------------------------------------------------
