 Q-Chem 5.0, Q-Chem, Inc., Pleasanton, CA (2017)
 Q-Chem 5.0.1 for Intel X86 EM64T Linux

User input:
--------------------------------------------------------------
$solvent
dielectric      2.38
dielectric_infi 2.25
$end

$rem
threads 8
jobtype	sp
method PBEh-3c
basis def2-mSVP
mem_static	1024
mem_total	14000
sym_ignore	true
cis_n_roots             2
cis_singlets            true
cis_triplets		false
rpa                     false
calc_soc 		true
cis_moments             true
cis_relaxed_density	true
solvent_method		pcm
$end

$pcm
StateSpecific   1
ChargeSeparation Excited
$end

$molecule
read sleopt.mol
$end

--------------------------------------------------------------

   15   -1973.7117363064      5.13E-09 Convergence criterion met
 Total energy in the final basis set = -1973.71173631
 Total job time:  5223.37s(wall), 17424.34s(cpu)
        *  Thank you very much for using Q-Chem.  Have a nice day.  *
 Q-Chem 5.0, Q-Chem, Inc., Pleasanton, CA (2017)
 Q-Chem 5.0.1 for Intel X86 EM64T Linux

User input:
--------------------------------------------------------------
$rem
threads 8
jobtype sp
method PBEh-3c
basis def2-mSVP
mem_static      1024
mem_total       14000
sym_ignore      true
cis_n_roots             6
cis_singlets            true
cis_triplets            true
rpa                     false
calc_soc                true
cis_moments             true
cis_relaxed_density     true
solvent_method          pcm
$end

$molecule
read
$end

$pcm
statespecific           Marcus
$end

$solvent
dielectric      2.38
dielectric_infi 2.25
$end

--------------------------------------------------------------

             Standard Nuclear Orientation (Angstroms)
    I     Atom           X                Y                Z
 ----------------------------------------------------------------
    1      C       0.0000000000     0.0000000000     0.0000000000
    2      C       0.0000000000     0.0000000000     1.3998220000
    3      H       0.9453129492     0.0000000000     1.9314413338
    4      C      -1.1852562271    -0.0439197277     2.0888531747
    5      C      -1.4489517596    -0.1301941159     3.5051479647
    6      C      -0.6688780495    -0.1631059843     4.6385429699
    7      H       0.4102892303    -0.0933669668     4.5907927612
    8      C      -1.3076881732    -0.2999522293     5.8856047751
    9      H      -0.6982585181    -0.3258752815     6.7795830809
   10      C      -2.6771084762    -0.4101631710     6.0098754350
   11      H      -3.1198312618    -0.5225289057     6.9918933141
   12      C      -2.8495966076    -0.2345597903     3.6387425285
   13      C      -3.5020396618    -0.3847136060     4.8624428916
   14      C      -4.9080499217    -0.5086179928     4.8007005040
   15      H      -5.4813477794    -0.6317727923     5.7111541476
   16      C      -5.5512270427    -0.4815338387     3.5812691760
   17      H      -6.6281028594    -0.5844745154     3.5586130305
   18      C      -4.8664001020    -0.3313133342     2.3577393275
   19      H      -5.4223470614    -0.3259636628     1.4294074136
   20      C      -3.4970747663    -0.2050702002     2.3820892220
   21      C      -2.4495568805    -0.0785550222     1.3859648725
   22      C      -2.4680885394    -0.0303078097     0.0113251352
   23      H      -3.4078400197    -0.0447971910    -0.5290987266
   24      C      -1.2645346554     0.0081436077    -0.7142726667
   25      B       1.3346699437    -0.0887273882    -0.7468569715
   26      C       1.3043301096    -0.1675490420    -2.2767624380
   27      C       2.5018428055    -0.3469931849    -2.9793595804
   28      H       3.4351201777    -0.4018528600    -2.4293957346
   29      C       2.4873186054    -0.4848287392    -4.3451883801
   30      C       3.5519896469    -0.7561964234    -5.2796107755
   31      C       4.9075992657    -0.9689906864    -5.1724165813
   32      H       5.4182574272    -0.9289119725    -4.2186091423
   33      C       5.6304380746    -1.2551227719    -6.3461386209
   34      H       6.6964619185    -1.4254152927    -6.2688368091
   35      C       5.0323159430    -1.3328452811    -7.5874903611
   36      H       5.6342551487    -1.5618121815    -8.4580863750
   37      C       2.9455453837    -0.8372766547    -6.5527035557
   38      C       3.6400280730    -1.1244743701    -7.7265318997
   39      C       2.8590482469    -1.1887288794    -8.9031259832
   40      H       3.3290992486    -1.4059538859    -9.8541546176
   41      C       1.4962474362    -0.9839556169    -8.8434948268
   42      H       0.9210770768    -1.0443563064    -9.7579597843
   43      C       0.8164417929    -0.7072852519    -7.6402599885
   44      H      -0.2564939797    -0.5668138172    -7.6466490606
   45      C       1.5483917116    -0.6304002983    -6.4789758760
   46      C       1.2421841306    -0.4138154702    -5.0800951816
   47      C       0.0583782339    -0.2219534748    -4.4057556659
   48      H      -0.8815639274    -0.1814140816    -4.9441386634
   49      C       0.0476222139    -0.1107548649    -3.0051370698
   50      B      -1.2868358135     0.0007430412    -2.2497708951
   51      C      -2.6527992985     0.0511152635    -3.0296534328
   52      C      -3.2338032397     1.2790013334    -3.3603380463
   53      C      -4.4380966766     1.3147739646    -4.0564604477
   54      H      -4.8752952290     2.2750858432    -4.3096712750
   55      C      -5.0898458481     0.1497107515    -4.4352646617
   56      C      -4.5105802841    -1.0670918979    -4.0936320293
   57      H      -5.0092412225    -1.9894626772    -4.3755174532
   58      C      -3.3089535046    -1.1309752089    -3.4004732135
   59      C      -6.3807647743     0.1896488730    -5.2004317478
   60      H      -6.7459166838     1.2092877191    -5.3189927705
   61      H      -7.1616545763    -0.3841912642    -4.6989985203
   62      H      -6.2638297894    -0.2338516054    -6.1998271539
   63      C      -2.5533688306     2.5579325313    -2.9580916913
   64      H      -3.0952755280     3.4344480323    -3.3132724169
   65      H      -1.5380210727     2.6135164277    -3.3563139372
   66      H      -2.4695877259     2.6401797296    -1.8721075154
   67      C      -2.7110798125    -2.4648846968    -3.0462159661
   68      H      -3.3632698223    -3.2887499939    -3.3364881794
   69      H      -2.5288383513    -2.5497870622    -1.9727955128
   70      H      -1.7484130476    -2.6184499970    -3.5391505082
   71      C       2.6922605825    -0.1770248674     0.0516499432
   72      C       3.2028093314    -1.4219700270     0.4381164045
   73      C       4.3968163218    -1.4959885397     1.1488901097
   74      H       4.7795946023    -2.4694197625     1.4385662391
   75      C       5.1082594532    -0.3569358862     1.4957272577
   76      C       4.5948553350     0.8762397528     1.1108825779
   77      H       5.1362640785     1.7805559904     1.3708258025
   78      C       3.4062605873     0.9778914103     0.3995087813
   79      C       6.3900213337    -0.4463622792     2.2727412947
   80      H       6.7144168831    -1.4796412422     2.3929499936
   81      H       7.1971697076     0.0970937028     1.7793278513
   82      H       6.2811609612    -0.0204904387     3.2721154462
   83      C       2.8751152990     2.3276317389     0.0066394699
   84      H       3.5585514177     3.1290371468     0.2874176476
   85      H       2.7106158584     2.3930923706    -1.0707587363
   86      H       1.9140302399     2.5298350147     0.4847481998
   87      C       2.4615978171    -2.6844835309     0.0939776439
   88      H       2.9911788513    -3.5704489212     0.4448237161
   89      H       2.3226872852    -2.7899696499    -0.9838715215
   90      H       1.4660822169    -2.6976477898     0.5428619474
 ----------------------------------------------------------------

   15   -1973.7117208483      5.16E-09 Convergence criterion met
 Total energy in the final basis set = -1973.71172085

         TDDFT/TDA Excitation Energies
 ---------------------------------------------------

 Excited state   1: excitation energy (eV) =    2.0233
 Total energy for state  1:                 -1973.63736419 au
    Multiplicity: Triplet
    Trans. Mom.:  0.0000 X   0.0000 Y   0.0000 Z
    Strength   :     0.0000000000
    D(167) --> V(  2) amplitude = -0.2562
    D(174) --> V(  1) amplitude =  0.9245

 Excited state   2: excitation energy (eV) =    2.3628
 Total energy for state  2:                 -1973.62488927 au
    Multiplicity: Triplet
    Trans. Mom.:  0.0000 X   0.0000 Y   0.0000 Z
    Strength   :     0.0000000000
    D(171) --> V(  2) amplitude = -0.2256
    D(172) --> V(  2) amplitude =  0.4237
    D(173) --> V(  1) amplitude =  0.8090

 Excited state   3: excitation energy (eV) =    2.4276
 Total energy for state  3:                 -1973.62250948 au
    Multiplicity: Triplet
    Trans. Mom.:  0.0000 X   0.0000 Y   0.0000 Z
    Strength   :     0.0000000000
    D(171) --> V(  1) amplitude = -0.3390
    D(172) --> V(  1) amplitude =  0.6567
    D(173) --> V(  2) amplitude =  0.5500

 Excited state   4: excitation energy (eV) =    2.5310
 Total energy for state  4:                 -1973.61870906 au
    Multiplicity: Triplet
    Trans. Mom.:  0.0000 X   0.0000 Y   0.0000 Z
    Strength   :     0.0000000000
    D(167) --> V(  1) amplitude =  0.7223
    D(174) --> V(  2) amplitude = -0.5723

 Excited state   5: excitation energy (eV) =    2.6893
 Total energy for state  5:                 -1973.61289210 au
    Multiplicity: Singlet
    Trans. Mom.: -0.0554 X   0.0342 Y   0.0773 Z
    Strength   :     0.0006730484
    D(174) --> V(  1) amplitude =  0.9685

 Excited state   6: excitation energy (eV) =    3.0194
 Total energy for state  6:                 -1973.60076068 au
    Multiplicity: Triplet
    Trans. Mom.:  0.0000 X   0.0000 Y   0.0000 Z
    Strength   :     0.0000000000
    D(171) --> V(  1) amplitude =  0.8294
    D(172) --> V(  1) amplitude =  0.4500

 Excited state   7: excitation energy (eV) =    3.0802
 Total energy for state  7:                 -1973.59852560 au
    Multiplicity: Singlet
    Trans. Mom.:  2.0799 X  -0.2169 Y  -3.6515 Z
    Strength   :     1.3362229120
    D(173) --> V(  1) amplitude =  0.9489

 Excited state   8: excitation energy (eV) =    3.0950
 Total energy for state  8:                 -1973.59798089 au
    Multiplicity: Singlet
    Trans. Mom.:  0.2082 X  -0.0094 Y  -0.4584 Z
    Strength   :     0.0192272467
    D(171) --> V(  1) amplitude =  0.8269
    D(172) --> V(  1) amplitude =  0.4825

 Excited state   9: excitation energy (eV) =    3.1795
 Total energy for state  9:                 -1973.59487488 au
    Multiplicity: Triplet
    Trans. Mom.:  0.0000 X   0.0000 Y   0.0000 Z
    Strength   :     0.0000000000
    D(170) --> V(  1) amplitude =  0.9586

 Excited state  10: excitation energy (eV) =    3.2129
 Total energy for state 10:                 -1973.59364826 au
    Multiplicity: Singlet
    Trans. Mom.:  0.0551 X  -0.0156 Y  -0.2686 Z
    Strength   :     0.0059383786
    D(170) --> V(  1) amplitude =  0.9679

 Excited state  11: excitation energy (eV) =    3.4088
 Total energy for state 11:                 -1973.58644971 au
    Multiplicity: Singlet
    Trans. Mom.: -0.1849 X   0.3433 Y  -0.1206 Z
    Strength   :     0.0139107387
    D(171) --> V(  1) amplitude = -0.4661
    D(172) --> V(  1) amplitude =  0.8023

 Excited state  12: excitation energy (eV) =    3.4651
 Total energy for state 12:                 -1973.58438112 au
    Multiplicity: Singlet
    Trans. Mom.: -0.9467 X  -0.0182 Y  -0.5219 Z
    Strength   :     0.0992385367
    D(167) --> V(  1) amplitude =  0.7272
    D(174) --> V(  2) amplitude = -0.5917

 ---------------------------------------------------

                    Orbital Energies (a.u.)
 --------------------------------------------------------------

 Alpha MOs
 -- Occupied --
-10.466 -10.466 -10.466 -10.465 -10.465 -10.465 -10.465 -10.465
-10.464 -10.464 -10.463 -10.463 -10.463 -10.462 -10.462 -10.462
-10.461 -10.460 -10.459 -10.459 -10.459 -10.459 -10.455 -10.455
-10.453 -10.452 -10.449 -10.449 -10.449 -10.449 -10.449 -10.448
-10.448 -10.447 -10.437 -10.437 -10.435 -10.435 -10.431 -10.431
-10.431 -10.430 -10.427 -10.427 -10.425 -10.425 -10.424 -10.424
-10.420 -10.419  -6.944  -6.943  -1.016  -1.016  -0.961  -0.957
 -0.957  -0.955  -0.934  -0.934  -0.907  -0.898  -0.872  -0.869
 -0.868  -0.868  -0.858  -0.857  -0.848  -0.848  -0.819  -0.814
 -0.813  -0.799  -0.780  -0.779  -0.759  -0.757  -0.757  -0.756
 -0.734  -0.731  -0.730  -0.719  -0.689  -0.684  -0.678  -0.668
 -0.650  -0.644  -0.639  -0.639  -0.638  -0.636  -0.597  -0.592
 -0.591  -0.588  -0.583  -0.576  -0.575  -0.551  -0.546  -0.542
 -0.541  -0.540  -0.527  -0.526  -0.521  -0.509  -0.502  -0.500
 -0.495  -0.494  -0.493  -0.486  -0.486  -0.485  -0.480  -0.480
 -0.479  -0.479  -0.475  -0.467  -0.465  -0.464  -0.463  -0.463
 -0.462  -0.460  -0.455  -0.454  -0.449  -0.448  -0.445  -0.443
 -0.442  -0.439  -0.433  -0.430  -0.426  -0.423  -0.416  -0.411
 -0.411  -0.401  -0.399  -0.397  -0.397  -0.394  -0.390  -0.388
 -0.383  -0.380  -0.379  -0.378  -0.377  -0.367  -0.355  -0.350
 -0.348  -0.335  -0.324  -0.318  -0.297  -0.297  -0.278  -0.273
 -0.273  -0.266  -0.264  -0.263  -0.256  -0.251

          Ground-State Mulliken Net Atomic Charges

     Atom                 Charge (a.u.)
  ----------------------------------------
      1 C                    -0.154373
      2 C                    -0.382158
      3 H                     0.245630
      4 C                     0.069321
      5 C                     0.187938
      6 C                    -0.377779
      7 H                     0.243443
      8 C                    -0.224736
      9 H                     0.247714
     10 C                    -0.341821
     11 H                     0.243662
     12 C                    -0.080688
     13 C                     0.235890
     14 C                    -0.345394
     15 H                     0.244006
     16 C                    -0.222198
     17 H                     0.247344
     18 C                    -0.386248
     19 H                     0.243322
     20 C                     0.189167
     21 C                     0.095712
     22 C                    -0.393931
     23 H                     0.244444
     24 C                    -0.155492
     25 B                     0.682429
     26 C                    -0.153953
     27 C                    -0.385627
     28 H                     0.244983
     29 C                     0.072158
     30 C                     0.188498
     31 C                    -0.377507
     32 H                     0.243863
     33 C                    -0.224417
     34 H                     0.247821
     35 C                    -0.342687
     36 H                     0.243662
     37 C                    -0.081896
     38 C                     0.236149
     39 C                    -0.345385
     40 H                     0.243974
     41 C                    -0.222876
     42 H                     0.247528
     43 C                    -0.383770
     44 H                     0.243584
     45 C                     0.188568
     46 C                     0.093006
     47 C                    -0.392611
     48 H                     0.244489
     49 C                    -0.155060
     50 B                     0.684666
     51 C                    -0.220322
     52 C                     0.055285
     53 C                    -0.362124
     54 H                     0.215994
     55 C                     0.116875
     56 C                    -0.352895
     57 H                     0.214773
     58 C                     0.050909
     59 C                    -0.718457
     60 H                     0.234241
     61 H                     0.235124
     62 H                     0.236501
     63 C                    -0.769403
     64 H                     0.245039
     65 H                     0.246023
     66 H                     0.246405
     67 C                    -0.765392
     68 H                     0.244102
     69 H                     0.245460
     70 H                     0.246003
     71 C                    -0.226460
     72 C                     0.051542
     73 C                    -0.361662
     74 H                     0.216011
     75 C                     0.116995
     76 C                    -0.351612
     77 H                     0.215075
     78 C                     0.056629
     79 C                    -0.718462
     80 H                     0.234123
     81 H                     0.235221
     82 H                     0.236884
     83 C                    -0.765825
     84 H                     0.244280
     85 H                     0.246041
     86 H                     0.244582
     87 C                    -0.766865
     88 H                     0.244622
     89 H                     0.246058
     90 H                     0.246316
  ----------------------------------------
  Sum of atomic charges =    -0.000000

                    Cartesian Multipole Moments
 -----------------------------------------------------------------
    Charge (ESU x 10^10)
                -0.0000
    Dipole Moment (Debye)
         X       0.0706      Y      -0.9970      Z       0.1090
       Tot       1.0054
    Quadrupole Moments (Debye-Ang)
        XX    -253.3581     XY      -1.6356     YY    -300.2171
        XZ      -7.2283     YZ       4.6073     ZZ    -243.0986

 Total job time:  8224.77s(wall), 34674.59s(cpu)
        *  Thank you very much for using Q-Chem.  Have a nice day.  *
