 Q-Chem 5.1, Q-Chem, Inc., Pleasanton, CA (2018)
 Q-Chem 5.1.1 for Intel X86 EM64T Linux

User input:
--------------------------------------------------------------
$solvent
dielectric      4.33
dielectric_infi 1.83
$end

$rem
threads 8
jobtype	sp
method PBEh-3c
basis def2-mSVP
mem_static	1024
mem_total	14000
sym_ignore	true
cis_n_roots             2
cis_singlets            true
cis_triplets		false
rpa                     false
calc_soc 		true
cis_moments             true
cis_relaxed_density	true
solvent_method		pcm
$end

$pcm
StateSpecific   1
ChargeSeparation Excited
$end

$molecule
read sleopt.mol
$end

--------------------------------------------------------------

   14   -1973.7182097434      8.32e-09  Convergence criterion met
 Total energy in the final basis set =    -1973.7182097434
 Total job time:  5291.78s(wall), 23210.99s(cpu)
        *  Thank you very much for using Q-Chem.  Have a nice day.  *
 Q-Chem 5.1, Q-Chem, Inc., Pleasanton, CA (2018)
 Q-Chem 5.1.1 for Intel X86 EM64T Linux

User input:
--------------------------------------------------------------
$rem
threads 8
jobtype sp
method PBEh-3c
basis def2-mSVP
mem_static      1024
mem_total       14000
sym_ignore      true
cis_n_roots             6
cis_singlets            true
cis_triplets            true
rpa                     false
calc_soc                true
cis_moments             true
cis_relaxed_density     true
solvent_method          pcm
$end

$molecule
read
$end

$pcm
statespecific           Marcus
$end

$solvent
dielectric      4.33
dielectric_infi 1.83
$end

--------------------------------------------------------------

             Standard Nuclear Orientation (Angstroms)
    I     Atom           X                Y                Z
 ----------------------------------------------------------------
    1      C       0.0000000000     0.0000000000     0.0000000000
    2      C       0.0000000000     0.0000000000     1.4037220000
    3      H       0.9462457046     0.0000000000     1.9327659869
    4      C      -1.1850633206     0.0003253890     2.0958139739
    5      C      -1.4814842285    -0.0020402523     3.5131552233
    6      C      -0.7396211501    -0.0080188143     4.6713874514
    7      H       0.3424255854    -0.0124060693     4.6551802443
    8      C      -1.4224302876    -0.0084412662     5.9043866319
    9      H      -0.8398875981    -0.0130816119     6.8162790284
   10      C      -2.7985605838    -0.0033049059     5.9965106466
   11      H      -3.2723394995    -0.0039252042     6.9702791286
   12      C      -2.8906031052     0.0029884662     3.6189004427
   13      C      -3.5898861758     0.0026898770     4.8254834397
   14      C      -3.5119972230     0.0083582241     2.3491019523
   15      C      -4.8871147803     0.0140067004     2.2848800812
   16      H      -5.4136788736     0.0185134524     1.3390696719
   17      C      -5.6132047370     0.0139923924     3.4915286913
   18      H      -6.6944641488     0.0185480770     3.4446904351
   19      C      -5.0004592970     0.0083979897     4.7275393523
   20      H      -5.6053758856     0.0085383282     5.6258262862
   21      C      -2.4431101409     0.0063510034     1.3775118683
   22      C      -2.4632755512     0.0112739908     0.0028855855
   23      H      -3.4073162134     0.0200974160    -0.5315261281
   24      C      -1.2622557414     0.0060431628    -0.7206287282
   25      B       1.3354873671    -0.0013188506    -0.7504349388
   26      C       1.3172456190    -0.0371019297    -2.2823124891
   27      C       2.5288765043    -0.0703889111    -2.9920002025
   28      H       3.4630799770    -0.0715409907    -2.4414695740
   29      C       2.5278000936    -0.1001021727    -4.3655244269
   30      C       3.5968326457    -0.1366127362    -5.3421380961
   31      C       4.9710055145    -0.1570128358    -5.2923453902
   32      H       5.5076136810    -0.1471754082    -4.3525659845
   33      C       5.6840565765    -0.1914092370    -6.5078999028
   34      H       6.7653713458    -0.2073837742    -6.4701624406
   35      C       5.0631891169    -0.2054789806    -7.7395322623
   36      H       5.6607740470    -0.2318834776    -8.6421615800
   37      C       2.9715633033    -0.1513290415    -6.6096499331
   38      C       3.6521487867    -0.1852052081    -7.8252872054
   39      C       1.5626309885    -0.1264195547    -6.4967246537
   40      C       0.8037597377    -0.1359921117    -7.6448774134
   41      H      -0.2782173661    -0.1175540302    -7.6136039181
   42      C       1.4704996075    -0.1700969263    -8.8843337297
   43      H       0.8787630842    -0.1774905704    -9.7904862537
   44      C       2.8463484210    -0.1942375427    -8.9876007525
   45      H       3.3090523765    -0.2200128432    -9.9663200359
   46      C       1.2696166416    -0.0936599931    -5.0839149331
   47      C       0.0734697282    -0.0570267727    -4.4062960322
   48      H      -0.8656519760    -0.0474232318    -4.9491262302
   49      C       0.0548626586    -0.0300317839    -3.0052666092
   50      B      -1.2873950374     0.0125097398    -2.2562313509
   51      C       2.6916999029     0.0510705853     0.0456101650
   52      C       3.3353774494    -1.1233413755     0.4468745644
   53      C       4.5324727932    -1.0527083773     1.1529232844
   54      H       5.0237757080    -1.9713615884     1.4568544064
   55      C       5.1124612168     0.1661285787     1.4756070115
   56      C       4.4639992434     1.3289302249     1.0744846891
   57      H       4.9020247742     2.2921860312     1.3172029439
   58      C       3.2685120643     1.2862412883     0.3701914297
   59      C       6.3984740544     0.2387230647     2.2467403201
   60      H       6.8390029418    -0.7478745123     2.3863282531
   61      H       7.1363800299     0.8601660106     1.7370255048
   62      H       6.2445633411     0.6718237121     3.2370054354
   63      C       2.7268590735    -2.4571247426     0.1142558649
   64      H       3.3345133969    -3.2835301453     0.4827741085
   65      H       2.6115563852    -2.5863904963    -0.9641897938
   66      H       1.7300224086    -2.5596323123     0.5490803579
   67      C       2.5860778163     2.5607560169    -0.0439119151
   68      H       3.1492622722     3.4410597663     0.2660419828
   69      H       2.4598050925     2.6142239890    -1.1275471950
   70      H       1.5872811131     2.6378707386     0.3916112574
   71      C      -2.6569919005     0.0780061617    -3.0381824146
   72      C      -3.2248506567     1.3141448052    -3.3670542993
   73      C      -4.4390904405     1.3674293574    -4.0446024170
   74      H      -4.8645958154     2.3349607770    -4.2907422920
   75      C      -5.1175032669     0.2150728386    -4.4124903308
   76      C      -4.5502898745    -1.0098693844    -4.0804516055
   77      H      -5.0660530788    -1.9248545036    -4.3550113359
   78      C      -3.3400202459    -1.0908912797    -3.4040612811
   79      C      -6.4213794664     0.2806458733    -5.1546473378
   80      H      -6.7733619859     1.3067562245    -5.2571882806
   81      H      -7.2016516760    -0.2860363941    -4.6442939382
   82      H      -6.3290417067    -0.1350018816    -6.1598586112
   83      C      -2.7631088361    -2.4341078184    -3.0559447912
   84      H      -3.3881777324    -3.2489936968    -3.4211755134
   85      H      -1.7664994111    -2.5640597385    -3.4828242068
   86      H      -2.6601657580    -2.5553374305    -1.9753912193
   87      C      -2.5275777780     2.5899685497    -2.9847605184
   88      H      -3.0779904444     3.4677322738    -3.3237282333
   89      H      -1.5253246921     2.6427561731    -3.4148999087
   90      H      -2.4108596523     2.6725475818    -1.9019623519
 ----------------------------------------------------------------

   15   -1973.7180014724      5.37e-09  Convergence criterion met
 Total energy in the final basis set =    -1973.7180014724

         TDDFT/TDA Excitation Energies
 ---------------------------------------------------

 Excited state   1: excitation energy (eV) =    2.0198
 Total energy for state  1:                 -1973.64377460 au
    Multiplicity: Triplet
    Trans. Mom.:  0.0000 X   0.0000 Y   0.0000 Z
    Strength   :     0.0000000000
    D(167) --> V(  2) amplitude =  0.2533
    D(174) --> V(  1) amplitude =  0.9224

 Excited state   2: excitation energy (eV) =    2.3556
 Total energy for state  2:                 -1973.63143370 au
    Multiplicity: Triplet
    Trans. Mom.:  0.0000 X   0.0000 Y   0.0000 Z
    Strength   :     0.0000000000
    D(172) --> V(  2) amplitude = -0.4758
    D(173) --> V(  1) amplitude =  0.8112

 Excited state   3: excitation energy (eV) =    2.4216
 Total energy for state  3:                 -1973.62900825 au
    Multiplicity: Triplet
    Trans. Mom.:  0.0000 X   0.0000 Y   0.0000 Z
    Strength   :     0.0000000000
    D(172) --> V(  1) amplitude =  0.7440
    D(172) --> V(  4) amplitude =  0.2249
    D(173) --> V(  2) amplitude = -0.5385

 Excited state   4: excitation energy (eV) =    2.5326
 Total energy for state  4:                 -1973.62492875 au
    Multiplicity: Triplet
    Trans. Mom.:  0.0000 X   0.0000 Y   0.0000 Z
    Strength   :     0.0000000000
    D(167) --> V(  1) amplitude =  0.7253
    D(174) --> V(  2) amplitude =  0.5600

 Excited state   5: excitation energy (eV) =    2.6848
 Total energy for state  5:                 -1973.61933708 au
    Multiplicity: Singlet
    Trans. Mom.: -0.0783 X   0.0021 Y   0.1414 Z
    Strength   :     0.0017190499
    D(174) --> V(  1) amplitude =  0.9653

 Excited state   6: excitation energy (eV) =    3.0324
 Total energy for state  6:                 -1973.60656156 au
    Multiplicity: Triplet
    Trans. Mom.:  0.0000 X   0.0000 Y   0.0000 Z
    Strength   :     0.0000000000
    D(171) --> V(  1) amplitude =  0.9413

 Excited state   7: excitation energy (eV) =    3.0789
 Total energy for state  7:                 -1973.60485294 au
    Multiplicity: Singlet
    Trans. Mom.:  1.9655 X  -0.0511 Y  -3.4428 Z
    Strength   :     1.1856737643
    D(171) --> V(  1) amplitude =  0.2618
    D(173) --> V(  1) amplitude =  0.9175

 Excited state   8: excitation energy (eV) =    3.1122
 Total energy for state  8:                 -1973.60363186 au
    Multiplicity: Singlet
    Trans. Mom.: -0.6437 X   0.0141 Y   1.1366 Z
    Strength   :     0.1301115349
    D(171) --> V(  1) amplitude =  0.9272
    D(173) --> V(  1) amplitude = -0.2569

 Excited state   9: excitation energy (eV) =    3.1949
 Total energy for state  9:                 -1973.60059127 au
    Multiplicity: Triplet
    Trans. Mom.:  0.0000 X   0.0000 Y   0.0000 Z
    Strength   :     0.0000000000
    D(170) --> V(  1) amplitude =  0.9621

 Excited state  10: excitation energy (eV) =    3.2273
 Total energy for state 10:                 -1973.59940175 au
    Multiplicity: Singlet
    Trans. Mom.: -0.0024 X   0.0024 Y  -0.0079 Z
    Strength   :     0.0000058553
    D(170) --> V(  1) amplitude =  0.9697

 Excited state  11: excitation energy (eV) =    3.4087
 Total energy for state 11:                 -1973.59273414 au
    Multiplicity: Singlet
    Trans. Mom.: -0.1398 X  -0.0524 Y  -0.0829 Z
    Strength   :     0.0024335732
    D(172) --> V(  1) amplitude =  0.9333

 Excited state  12: excitation energy (eV) =    3.4716
 Total energy for state 12:                 -1973.59042143 au
    Multiplicity: Singlet
    Trans. Mom.: -0.9220 X   0.0121 Y  -0.5031 Z
    Strength   :     0.0938420222
    D(167) --> V(  1) amplitude =  0.7398
    D(174) --> V(  2) amplitude =  0.5702

 ---------------------------------------------------

                    Orbital Energies (a.u.)
 --------------------------------------------------------------

 Alpha MOs
 -- Occupied --
-10.467 -10.467 -10.466 -10.466 -10.466 -10.466 -10.466 -10.465
-10.465 -10.465 -10.463 -10.462 -10.462 -10.462 -10.462 -10.462
-10.462 -10.461 -10.458 -10.458 -10.458 -10.458 -10.456 -10.455
-10.455 -10.455 -10.452 -10.451 -10.451 -10.451 -10.450 -10.450
-10.449 -10.449 -10.438 -10.438 -10.438 -10.437 -10.433 -10.433
-10.433 -10.432 -10.428 -10.427 -10.426 -10.426 -10.426 -10.426
-10.422 -10.421  -6.947  -6.944  -1.016  -1.016  -0.963  -0.959
 -0.958  -0.957  -0.934  -0.934  -0.908  -0.899  -0.874  -0.870
 -0.870  -0.870  -0.859  -0.858  -0.848  -0.848  -0.819  -0.815
 -0.813  -0.800  -0.781  -0.781  -0.761  -0.759  -0.759  -0.758
 -0.734  -0.731  -0.730  -0.719  -0.689  -0.685  -0.678  -0.669
 -0.652  -0.644  -0.641  -0.641  -0.639  -0.638  -0.598  -0.592
 -0.592  -0.588  -0.583  -0.576  -0.575  -0.553  -0.548  -0.543
 -0.542  -0.542  -0.527  -0.526  -0.522  -0.510  -0.503  -0.501
 -0.496  -0.495  -0.494  -0.487  -0.487  -0.486  -0.481  -0.480
 -0.480  -0.480  -0.476  -0.467  -0.466  -0.465  -0.465  -0.464
 -0.464  -0.461  -0.457  -0.456  -0.451  -0.450  -0.446  -0.444
 -0.442  -0.440  -0.434  -0.431  -0.427  -0.424  -0.418  -0.413
 -0.412  -0.401  -0.398  -0.397  -0.397  -0.394  -0.391  -0.389
 -0.385  -0.381  -0.381  -0.380  -0.379  -0.368  -0.357  -0.351
 -0.350  -0.337  -0.326  -0.319  -0.298  -0.297  -0.279  -0.276
 -0.276  -0.268  -0.266  -0.264  -0.257  -0.252

          Ground-State Mulliken Net Atomic Charges

     Atom                 Charge (a.u.)
  ----------------------------------------
      1 C                    -0.155409
      2 C                    -0.388689
      3 H                     0.248179
      4 C                     0.081197
      5 C                     0.190048
      6 C                    -0.386804
      7 H                     0.250539
      8 C                    -0.229352
      9 H                     0.255197
     10 C                    -0.347204
     11 H                     0.252496
     12 C                    -0.083844
     13 C                     0.229029
     14 C                     0.184297
     15 C                    -0.381647
     16 H                     0.250511
     17 C                    -0.230597
     18 H                     0.255432
     19 C                    -0.345467
     20 H                     0.252451
     21 C                     0.076097
     22 C                    -0.389054
     23 H                     0.246594
     24 C                    -0.154827
     25 B                     0.677500
     26 C                    -0.155896
     27 C                    -0.391246
     28 H                     0.247012
     29 C                     0.082998
     30 C                     0.190066
     31 C                    -0.387407
     32 H                     0.250741
     33 C                    -0.229194
     34 H                     0.255143
     35 C                    -0.348067
     36 H                     0.252643
     37 C                    -0.082354
     38 C                     0.230463
     39 C                     0.181033
     40 C                    -0.380453
     41 H                     0.250537
     42 C                    -0.230527
     43 H                     0.255536
     44 C                    -0.345802
     45 H                     0.252292
     46 C                     0.075822
     47 C                    -0.388334
     48 H                     0.246252
     49 C                    -0.154766
     50 B                     0.680067
     51 C                    -0.223815
     52 C                     0.054803
     53 C                    -0.367166
     54 H                     0.222642
     55 C                     0.111081
     56 C                    -0.360749
     57 H                     0.221656
     58 C                     0.051223
     59 C                    -0.721275
     60 H                     0.237047
     61 H                     0.237424
     62 H                     0.239079
     63 C                    -0.770506
     64 H                     0.248423
     65 H                     0.246275
     66 H                     0.246318
     67 C                    -0.772217
     68 H                     0.249002
     69 H                     0.246935
     70 H                     0.246941
     71 C                    -0.219785
     72 C                     0.046702
     73 C                    -0.368258
     74 H                     0.223096
     75 C                     0.111820
     76 C                    -0.356775
     77 H                     0.221801
     78 C                     0.050346
     79 C                    -0.721451
     80 H                     0.237357
     81 H                     0.237713
     82 H                     0.239168
     83 C                    -0.768564
     84 H                     0.248210
     85 H                     0.245846
     86 H                     0.245649
     87 C                    -0.771128
     88 H                     0.249142
     89 H                     0.246471
     90 H                     0.246287
  ----------------------------------------
  Sum of atomic charges =    -0.000000

                    Cartesian Multipole Moments
 -----------------------------------------------------------------
    Charge (ESU x 10^10)
                -0.0000
    Dipole Moment (Debye)
         X      -0.0778      Y      -0.0604      Z      -0.0041
       Tot       0.0986
    Quadrupole Moments (Debye-Ang)
        XX    -248.3398     XY      -0.0266     YY    -301.5899
        XZ     -10.0011     YZ       1.1115     ZZ    -236.0277

 Total job time:  10098.04s(wall), 45464.09s(cpu)
        *  Thank you very much for using Q-Chem.  Have a nice day.  *
