 Q-Chem 5.1, Q-Chem, Inc., Pleasanton, CA (2018)
 Q-Chem 5.1.1 for Intel X86 EM64T Linux

User input:
--------------------------------------------------------------
$solvent
dielectric      2.03
dielectric_infi 2.02
$end

$rem
threads 8
jobtype	sp
method PBEh-3c
basis def2-mSVP
mem_static	1024
mem_total	14000
sym_ignore	true
cis_n_roots             2
cis_singlets            true
cis_triplets		false
rpa                     false
calc_soc 		true
cis_moments             true
cis_relaxed_density	true
solvent_method		pcm
$end

$pcm
StateSpecific   1
ChargeSeparation Excited
$end

$molecule
read sleopt.mol
$end

--------------------------------------------------------------

   15   -1973.7107159512      5.26e-09  Convergence criterion met
 Total energy in the final basis set =    -1973.7107159512
 Total job time:  5071.67s(wall), 18722.86s(cpu)
        *  Thank you very much for using Q-Chem.  Have a nice day.  *
 Q-Chem 5.1, Q-Chem, Inc., Pleasanton, CA (2018)
 Q-Chem 5.1.1 for Intel X86 EM64T Linux

User input:
--------------------------------------------------------------
$rem
threads 8
jobtype sp
method PBEh-3c
basis def2-mSVP
mem_static      1024
mem_total       14000
sym_ignore      true
cis_n_roots             6
cis_singlets            true
cis_triplets            true
rpa                     false
calc_soc                true
cis_moments             true
cis_relaxed_density     true
solvent_method          pcm
$end

$molecule
read
$end

$pcm
statespecific           Marcus
$end

$solvent
dielectric      2.03
dielectric_infi 2.02
$end

--------------------------------------------------------------

             Standard Nuclear Orientation (Angstroms)
    I     Atom           X                Y                Z
 ----------------------------------------------------------------
    1      C       0.0000000000     0.0000000000     0.0000000000
    2      C       0.0000000000     0.0000000000     1.4037220000
    3      H       0.9462457046     0.0000000000     1.9327659869
    4      C      -1.1850633206     0.0003253890     2.0958139739
    5      C      -1.4814842285    -0.0020402523     3.5131552233
    6      C      -0.7396211501    -0.0080188143     4.6713874514
    7      H       0.3424255854    -0.0124060693     4.6551802443
    8      C      -1.4224302876    -0.0084412662     5.9043866319
    9      H      -0.8398875981    -0.0130816119     6.8162790284
   10      C      -2.7985605838    -0.0033049059     5.9965106466
   11      H      -3.2723394995    -0.0039252042     6.9702791286
   12      C      -2.8906031052     0.0029884662     3.6189004427
   13      C      -3.5898861758     0.0026898770     4.8254834397
   14      C      -3.5119972230     0.0083582241     2.3491019523
   15      C      -4.8871147803     0.0140067004     2.2848800812
   16      H      -5.4136788736     0.0185134524     1.3390696719
   17      C      -5.6132047370     0.0139923924     3.4915286913
   18      H      -6.6944641488     0.0185480770     3.4446904351
   19      C      -5.0004592970     0.0083979897     4.7275393523
   20      H      -5.6053758856     0.0085383282     5.6258262862
   21      C      -2.4431101409     0.0063510034     1.3775118683
   22      C      -2.4632755512     0.0112739908     0.0028855855
   23      H      -3.4073162134     0.0200974160    -0.5315261281
   24      C      -1.2622557414     0.0060431628    -0.7206287282
   25      B       1.3354873671    -0.0013188506    -0.7504349388
   26      C       1.3172456190    -0.0371019297    -2.2823124891
   27      C       2.5288765043    -0.0703889111    -2.9920002025
   28      H       3.4630799770    -0.0715409907    -2.4414695740
   29      C       2.5278000936    -0.1001021727    -4.3655244269
   30      C       3.5968326457    -0.1366127362    -5.3421380961
   31      C       4.9710055145    -0.1570128358    -5.2923453902
   32      H       5.5076136810    -0.1471754082    -4.3525659845
   33      C       5.6840565765    -0.1914092370    -6.5078999028
   34      H       6.7653713458    -0.2073837742    -6.4701624406
   35      C       5.0631891169    -0.2054789806    -7.7395322623
   36      H       5.6607740470    -0.2318834776    -8.6421615800
   37      C       2.9715633033    -0.1513290415    -6.6096499331
   38      C       3.6521487867    -0.1852052081    -7.8252872054
   39      C       1.5626309885    -0.1264195547    -6.4967246537
   40      C       0.8037597377    -0.1359921117    -7.6448774134
   41      H      -0.2782173661    -0.1175540302    -7.6136039181
   42      C       1.4704996075    -0.1700969263    -8.8843337297
   43      H       0.8787630842    -0.1774905704    -9.7904862537
   44      C       2.8463484210    -0.1942375427    -8.9876007525
   45      H       3.3090523765    -0.2200128432    -9.9663200359
   46      C       1.2696166416    -0.0936599931    -5.0839149331
   47      C       0.0734697282    -0.0570267727    -4.4062960322
   48      H      -0.8656519760    -0.0474232318    -4.9491262302
   49      C       0.0548626586    -0.0300317839    -3.0052666092
   50      B      -1.2873950374     0.0125097398    -2.2562313509
   51      C       2.6916999029     0.0510705853     0.0456101650
   52      C       3.3353774494    -1.1233413755     0.4468745644
   53      C       4.5324727932    -1.0527083773     1.1529232844
   54      H       5.0237757080    -1.9713615884     1.4568544064
   55      C       5.1124612168     0.1661285787     1.4756070115
   56      C       4.4639992434     1.3289302249     1.0744846891
   57      H       4.9020247742     2.2921860312     1.3172029439
   58      C       3.2685120643     1.2862412883     0.3701914297
   59      C       6.3984740544     0.2387230647     2.2467403201
   60      H       6.8390029418    -0.7478745123     2.3863282531
   61      H       7.1363800299     0.8601660106     1.7370255048
   62      H       6.2445633411     0.6718237121     3.2370054354
   63      C       2.7268590735    -2.4571247426     0.1142558649
   64      H       3.3345133969    -3.2835301453     0.4827741085
   65      H       2.6115563852    -2.5863904963    -0.9641897938
   66      H       1.7300224086    -2.5596323123     0.5490803579
   67      C       2.5860778163     2.5607560169    -0.0439119151
   68      H       3.1492622722     3.4410597663     0.2660419828
   69      H       2.4598050925     2.6142239890    -1.1275471950
   70      H       1.5872811131     2.6378707386     0.3916112574
   71      C      -2.6569919005     0.0780061617    -3.0381824146
   72      C      -3.2248506567     1.3141448052    -3.3670542993
   73      C      -4.4390904405     1.3674293574    -4.0446024170
   74      H      -4.8645958154     2.3349607770    -4.2907422920
   75      C      -5.1175032669     0.2150728386    -4.4124903308
   76      C      -4.5502898745    -1.0098693844    -4.0804516055
   77      H      -5.0660530788    -1.9248545036    -4.3550113359
   78      C      -3.3400202459    -1.0908912797    -3.4040612811
   79      C      -6.4213794664     0.2806458733    -5.1546473378
   80      H      -6.7733619859     1.3067562245    -5.2571882806
   81      H      -7.2016516760    -0.2860363941    -4.6442939382
   82      H      -6.3290417067    -0.1350018816    -6.1598586112
   83      C      -2.7631088361    -2.4341078184    -3.0559447912
   84      H      -3.3881777324    -3.2489936968    -3.4211755134
   85      H      -1.7664994111    -2.5640597385    -3.4828242068
   86      H      -2.6601657580    -2.5553374305    -1.9753912193
   87      C      -2.5275777780     2.5899685497    -2.9847605184
   88      H      -3.0779904444     3.4677322738    -3.3237282333
   89      H      -1.5253246921     2.6427561731    -3.4148999087
   90      H      -2.4108596523     2.6725475818    -1.9019623519
 ----------------------------------------------------------------

   15   -1973.7107144543      5.27e-09  Convergence criterion met
 Total energy in the final basis set =    -1973.7107144543

         TDDFT/TDA Excitation Energies
 ---------------------------------------------------

 Excited state   1: excitation energy (eV) =    2.0133
 Total energy for state  1:                 -1973.63672778 au
    Multiplicity: Triplet
    Trans. Mom.:  0.0000 X   0.0000 Y   0.0000 Z
    Strength   :     0.0000000000
    D(167) --> V(  2) amplitude = -0.2568
    D(174) --> V(  1) amplitude =  0.9232

 Excited state   2: excitation energy (eV) =    2.3612
 Total energy for state  2:                 -1973.62394202 au
    Multiplicity: Triplet
    Trans. Mom.:  0.0000 X   0.0000 Y   0.0000 Z
    Strength   :     0.0000000000
    D(172) --> V(  2) amplitude =  0.4792
    D(173) --> V(  1) amplitude =  0.8074

 Excited state   3: excitation energy (eV) =    2.4246
 Total energy for state  3:                 -1973.62161367 au
    Multiplicity: Triplet
    Trans. Mom.:  0.0000 X   0.0000 Y   0.0000 Z
    Strength   :     0.0000000000
    D(172) --> V(  1) amplitude =  0.7339
    D(172) --> V(  4) amplitude =  0.2217
    D(173) --> V(  2) amplitude =  0.5442

 Excited state   4: excitation energy (eV) =    2.5204
 Total energy for state  4:                 -1973.61809035 au
    Multiplicity: Triplet
    Trans. Mom.:  0.0000 X   0.0000 Y   0.0000 Z
    Strength   :     0.0000000000
    D(167) --> V(  1) amplitude = -0.7219
    D(174) --> V(  2) amplitude =  0.5670

 Excited state   5: excitation energy (eV) =    2.6818
 Total energy for state  5:                 -1973.61215947 au
    Multiplicity: Singlet
    Trans. Mom.:  0.0764 X  -0.0021 Y  -0.1378 Z
    Strength   :     0.0016305806
    D(174) --> V(  1) amplitude =  0.9671

 Excited state   6: excitation energy (eV) =    3.0152
 Total energy for state  6:                 -1973.59990873 au
    Multiplicity: Triplet
    Trans. Mom.:  0.0000 X   0.0000 Y   0.0000 Z
    Strength   :     0.0000000000
    D(171) --> V(  1) amplitude =  0.9359

 Excited state   7: excitation energy (eV) =    3.0807
 Total energy for state  7:                 -1973.59750191 au
    Multiplicity: Singlet
    Trans. Mom.:  1.4662 X  -0.0394 Y  -2.5650 Z
    Strength   :     0.6589277202
    D(171) --> V(  1) amplitude =  0.6451
    D(173) --> V(  1) amplitude =  0.7064

 Excited state   8: excitation energy (eV) =    3.1007
 Total energy for state  8:                 -1973.59676688 au
    Multiplicity: Singlet
    Trans. Mom.: -1.4858 X   0.0362 Y   2.6119 Z
    Strength   :     0.6860232324
    D(171) --> V(  1) amplitude =  0.7081
    D(173) --> V(  1) amplitude = -0.6408

 Excited state   9: excitation energy (eV) =    3.1750
 Total energy for state  9:                 -1973.59403657 au
    Multiplicity: Triplet
    Trans. Mom.:  0.0000 X   0.0000 Y   0.0000 Z
    Strength   :     0.0000000000
    D(170) --> V(  1) amplitude =  0.9620

 Excited state  10: excitation energy (eV) =    3.2071
 Total energy for state 10:                 -1973.59285639 au
    Multiplicity: Singlet
    Trans. Mom.:  0.0021 X  -0.0023 Y   0.0087 Z
    Strength   :     0.0000066703
    D(170) --> V(  1) amplitude =  0.9694

 Excited state  11: excitation energy (eV) =    3.4164
 Total energy for state 11:                 -1973.58516317 au
    Multiplicity: Singlet
    Trans. Mom.:  0.2077 X   0.0522 Y   0.1216 Z
    Strength   :     0.0050762182
    D(172) --> V(  1) amplitude =  0.9147

 Excited state  12: excitation energy (eV) =    3.4575
 Total energy for state 12:                 -1973.58365307 au
    Multiplicity: Singlet
    Trans. Mom.:  0.9290 X  -0.0159 Y   0.5034 Z
    Strength   :     0.0945884796
    D(167) --> V(  1) amplitude = -0.7144
    D(174) --> V(  2) amplitude =  0.5881

 ---------------------------------------------------

                    Orbital Energies (a.u.)
 --------------------------------------------------------------

 Alpha MOs
 -- Occupied --
-10.465 -10.465 -10.465 -10.465 -10.465 -10.465 -10.465 -10.464
-10.464 -10.464 -10.463 -10.462 -10.462 -10.462 -10.462 -10.462
-10.461 -10.461 -10.459 -10.459 -10.459 -10.459 -10.453 -10.453
-10.453 -10.453 -10.449 -10.448 -10.448 -10.448 -10.448 -10.448
-10.447 -10.447 -10.436 -10.436 -10.435 -10.435 -10.430 -10.430
-10.430 -10.430 -10.427 -10.427 -10.424 -10.424 -10.424 -10.424
-10.419 -10.418  -6.945  -6.941  -1.015  -1.015  -0.961  -0.957
 -0.956  -0.954  -0.934  -0.934  -0.906  -0.897  -0.872  -0.868
 -0.867  -0.867  -0.857  -0.856  -0.848  -0.848  -0.818  -0.814
 -0.812  -0.798  -0.779  -0.779  -0.758  -0.756  -0.756  -0.756
 -0.733  -0.730  -0.730  -0.718  -0.689  -0.683  -0.678  -0.667
 -0.650  -0.643  -0.638  -0.638  -0.638  -0.636  -0.597  -0.592
 -0.590  -0.588  -0.583  -0.576  -0.575  -0.551  -0.546  -0.542
 -0.540  -0.539  -0.527  -0.526  -0.521  -0.509  -0.502  -0.500
 -0.495  -0.494  -0.493  -0.486  -0.485  -0.484  -0.480  -0.479
 -0.479  -0.478  -0.475  -0.467  -0.465  -0.464  -0.463  -0.463
 -0.462  -0.460  -0.454  -0.454  -0.449  -0.448  -0.445  -0.443
 -0.442  -0.439  -0.433  -0.429  -0.426  -0.422  -0.416  -0.411
 -0.410  -0.400  -0.399  -0.397  -0.396  -0.394  -0.390  -0.388
 -0.382  -0.379  -0.379  -0.378  -0.376  -0.366  -0.354  -0.349
 -0.347  -0.335  -0.323  -0.317  -0.297  -0.296  -0.277  -0.272
 -0.272  -0.265  -0.263  -0.263  -0.255  -0.250

          Ground-State Mulliken Net Atomic Charges

     Atom                 Charge (a.u.)
  ----------------------------------------
      1 C                    -0.155448
      2 C                    -0.387532
      3 H                     0.244672
      4 C                     0.085618
      5 C                     0.195759
      6 C                    -0.383049
      7 H                     0.240823
      8 C                    -0.220469
      9 H                     0.244726
     10 C                    -0.343292
     11 H                     0.240654
     12 C                    -0.083426
     13 C                     0.238054
     14 C                     0.189877
     15 C                    -0.377915
     16 H                     0.240679
     17 C                    -0.221882
     18 H                     0.244877
     19 C                    -0.341590
     20 H                     0.240545
     21 C                     0.080490
     22 C                    -0.387633
     23 H                     0.242711
     24 C                    -0.154717
     25 B                     0.685038
     26 C                    -0.155987
     27 C                    -0.389910
     28 H                     0.243328
     29 C                     0.087402
     30 C                     0.195787
     31 C                    -0.383690
     32 H                     0.240965
     33 C                    -0.220315
     34 H                     0.244695
     35 C                    -0.344168
     36 H                     0.240816
     37 C                    -0.081960
     38 C                     0.239464
     39 C                     0.186614
     40 C                    -0.376700
     41 H                     0.240677
     42 C                    -0.221813
     43 H                     0.244980
     44 C                    -0.341929
     45 H                     0.240412
     46 C                     0.080232
     47 C                    -0.386804
     48 H                     0.242297
     49 C                    -0.154742
     50 B                     0.687830
     51 C                    -0.225684
     52 C                     0.058540
     53 C                    -0.358362
     54 H                     0.212919
     55 C                     0.118210
     56 C                    -0.353250
     57 H                     0.212496
     58 C                     0.055884
     59 C                    -0.717182
     60 H                     0.232814
     61 H                     0.234141
     62 H                     0.235919
     63 C                    -0.765992
     64 H                     0.242797
     65 H                     0.245486
     66 H                     0.245546
     67 C                    -0.767908
     68 H                     0.243339
     69 H                     0.246273
     70 H                     0.246253
     71 C                    -0.221576
     72 C                     0.051273
     73 C                    -0.359369
     74 H                     0.213383
     75 C                     0.118909
     76 C                    -0.349326
     77 H                     0.212548
     78 C                     0.054303
     79 C                    -0.717352
     80 H                     0.233178
     81 H                     0.234328
     82 H                     0.235987
     83 C                    -0.764046
     84 H                     0.242514
     85 H                     0.245085
     86 H                     0.244820
     87 C                    -0.766826
     88 H                     0.243475
     89 H                     0.245810
     90 H                     0.245590
  ----------------------------------------
  Sum of atomic charges =    -0.000000

                    Cartesian Multipole Moments
 -----------------------------------------------------------------
    Charge (ESU x 10^10)
                -0.0000
    Dipole Moment (Debye)
         X      -0.0608      Y      -0.0459      Z       0.0021
       Tot       0.0762
    Quadrupole Moments (Debye-Ang)
        XX    -253.4675     XY      -0.0053     YY    -302.1595
        XZ      -7.9347     YZ       0.9799     ZZ    -243.6529

 Total job time:  9724.46s(wall), 33541.66s(cpu)
        *  Thank you very much for using Q-Chem.  Have a nice day.  *
