 Q-Chem 5.1, Q-Chem, Inc., Pleasanton, CA (2018)
 Q-Chem 5.1.1 for Intel X86 EM64T Linux

User input:
--------------------------------------------------------------
$solvent
dielectric      8.93
dielectric_infi 2.03
$end

$rem
threads 8
jobtype	sp
method PBEh-3c
basis def2-mSVP
mem_static	1024
mem_total	14000
sym_ignore	true
cis_n_roots             2
cis_singlets            true
cis_triplets		false
rpa                     false
calc_soc 		true
cis_moments             true
cis_relaxed_density	true
solvent_method		pcm
$end

$pcm
StateSpecific   1
ChargeSeparation Excited
$end

$molecule
read sleopt.mol
$end

--------------------------------------------------------------

   14   -1973.7218450946      7.99e-09  Convergence criterion met
 Total energy in the final basis set =    -1973.7218450946
 Total job time:  5213.59s(wall), 22780.69s(cpu)
        *  Thank you very much for using Q-Chem.  Have a nice day.  *
 Q-Chem 5.1, Q-Chem, Inc., Pleasanton, CA (2018)
 Q-Chem 5.1.1 for Intel X86 EM64T Linux

User input:
--------------------------------------------------------------
$rem
threads 8
jobtype sp
method PBEh-3c
basis def2-mSVP
mem_static      1024
mem_total       14000
sym_ignore      true
cis_n_roots             6
cis_singlets            true
cis_triplets            true
rpa                     false
calc_soc                true
cis_moments             true
cis_relaxed_density     true
solvent_method          pcm
$end

$molecule
read
$end

$pcm
statespecific           Marcus
$end

$solvent
dielectric      8.93
dielectric_infi 2.03
$end

--------------------------------------------------------------

             Standard Nuclear Orientation (Angstroms)
    I     Atom           X                Y                Z
 ----------------------------------------------------------------
    1      C       0.0000000000     0.0000000000     0.0000000000
    2      C       0.0000000000     0.0000000000     1.4037220000
    3      H       0.9462457046     0.0000000000     1.9327659869
    4      C      -1.1850633206     0.0003253890     2.0958139739
    5      C      -1.4814842285    -0.0020402523     3.5131552233
    6      C      -0.7396211501    -0.0080188143     4.6713874514
    7      H       0.3424255854    -0.0124060693     4.6551802443
    8      C      -1.4224302876    -0.0084412662     5.9043866319
    9      H      -0.8398875981    -0.0130816119     6.8162790284
   10      C      -2.7985605838    -0.0033049059     5.9965106466
   11      H      -3.2723394995    -0.0039252042     6.9702791286
   12      C      -2.8906031052     0.0029884662     3.6189004427
   13      C      -3.5898861758     0.0026898770     4.8254834397
   14      C      -3.5119972230     0.0083582241     2.3491019523
   15      C      -4.8871147803     0.0140067004     2.2848800812
   16      H      -5.4136788736     0.0185134524     1.3390696719
   17      C      -5.6132047370     0.0139923924     3.4915286913
   18      H      -6.6944641488     0.0185480770     3.4446904351
   19      C      -5.0004592970     0.0083979897     4.7275393523
   20      H      -5.6053758856     0.0085383282     5.6258262862
   21      C      -2.4431101409     0.0063510034     1.3775118683
   22      C      -2.4632755512     0.0112739908     0.0028855855
   23      H      -3.4073162134     0.0200974160    -0.5315261281
   24      C      -1.2622557414     0.0060431628    -0.7206287282
   25      B       1.3354873671    -0.0013188506    -0.7504349388
   26      C       1.3172456190    -0.0371019297    -2.2823124891
   27      C       2.5288765043    -0.0703889111    -2.9920002025
   28      H       3.4630799770    -0.0715409907    -2.4414695740
   29      C       2.5278000936    -0.1001021727    -4.3655244269
   30      C       3.5968326457    -0.1366127362    -5.3421380961
   31      C       4.9710055145    -0.1570128358    -5.2923453902
   32      H       5.5076136810    -0.1471754082    -4.3525659845
   33      C       5.6840565765    -0.1914092370    -6.5078999028
   34      H       6.7653713458    -0.2073837742    -6.4701624406
   35      C       5.0631891169    -0.2054789806    -7.7395322623
   36      H       5.6607740470    -0.2318834776    -8.6421615800
   37      C       2.9715633033    -0.1513290415    -6.6096499331
   38      C       3.6521487867    -0.1852052081    -7.8252872054
   39      C       1.5626309885    -0.1264195547    -6.4967246537
   40      C       0.8037597377    -0.1359921117    -7.6448774134
   41      H      -0.2782173661    -0.1175540302    -7.6136039181
   42      C       1.4704996075    -0.1700969263    -8.8843337297
   43      H       0.8787630842    -0.1774905704    -9.7904862537
   44      C       2.8463484210    -0.1942375427    -8.9876007525
   45      H       3.3090523765    -0.2200128432    -9.9663200359
   46      C       1.2696166416    -0.0936599931    -5.0839149331
   47      C       0.0734697282    -0.0570267727    -4.4062960322
   48      H      -0.8656519760    -0.0474232318    -4.9491262302
   49      C       0.0548626586    -0.0300317839    -3.0052666092
   50      B      -1.2873950374     0.0125097398    -2.2562313509
   51      C       2.6916999029     0.0510705853     0.0456101650
   52      C       3.3353774494    -1.1233413755     0.4468745644
   53      C       4.5324727932    -1.0527083773     1.1529232844
   54      H       5.0237757080    -1.9713615884     1.4568544064
   55      C       5.1124612168     0.1661285787     1.4756070115
   56      C       4.4639992434     1.3289302249     1.0744846891
   57      H       4.9020247742     2.2921860312     1.3172029439
   58      C       3.2685120643     1.2862412883     0.3701914297
   59      C       6.3984740544     0.2387230647     2.2467403201
   60      H       6.8390029418    -0.7478745123     2.3863282531
   61      H       7.1363800299     0.8601660106     1.7370255048
   62      H       6.2445633411     0.6718237121     3.2370054354
   63      C       2.7268590735    -2.4571247426     0.1142558649
   64      H       3.3345133969    -3.2835301453     0.4827741085
   65      H       2.6115563852    -2.5863904963    -0.9641897938
   66      H       1.7300224086    -2.5596323123     0.5490803579
   67      C       2.5860778163     2.5607560169    -0.0439119151
   68      H       3.1492622722     3.4410597663     0.2660419828
   69      H       2.4598050925     2.6142239890    -1.1275471950
   70      H       1.5872811131     2.6378707386     0.3916112574
   71      C      -2.6569919005     0.0780061617    -3.0381824146
   72      C      -3.2248506567     1.3141448052    -3.3670542993
   73      C      -4.4390904405     1.3674293574    -4.0446024170
   74      H      -4.8645958154     2.3349607770    -4.2907422920
   75      C      -5.1175032669     0.2150728386    -4.4124903308
   76      C      -4.5502898745    -1.0098693844    -4.0804516055
   77      H      -5.0660530788    -1.9248545036    -4.3550113359
   78      C      -3.3400202459    -1.0908912797    -3.4040612811
   79      C      -6.4213794664     0.2806458733    -5.1546473378
   80      H      -6.7733619859     1.3067562245    -5.2571882806
   81      H      -7.2016516760    -0.2860363941    -4.6442939382
   82      H      -6.3290417067    -0.1350018816    -6.1598586112
   83      C      -2.7631088361    -2.4341078184    -3.0559447912
   84      H      -3.3881777324    -3.2489936968    -3.4211755134
   85      H      -1.7664994111    -2.5640597385    -3.4828242068
   86      H      -2.6601657580    -2.5553374305    -1.9753912193
   87      C      -2.5275777780     2.5899685497    -2.9847605184
   88      H      -3.0779904444     3.4677322738    -3.3237282333
   89      H      -1.5253246921     2.6427561731    -3.4148999087
   90      H      -2.4108596523     2.6725475818    -1.9019623519
 ----------------------------------------------------------------

   15   -1973.7215814535      5.21e-09  Convergence criterion met
 Total energy in the final basis set =    -1973.7215814535

         TDDFT/TDA Excitation Energies
 ---------------------------------------------------

 Excited state   1: excitation energy (eV) =    2.0251
 Total energy for state  1:                 -1973.64716222 au
    Multiplicity: Triplet
    Trans. Mom.:  0.0000 X   0.0000 Y   0.0000 Z
    Strength   :     0.0000000000
    D(167) --> V(  2) amplitude = -0.2518
    D(174) --> V(  1) amplitude =  0.9211

 Excited state   2: excitation energy (eV) =    2.3532
 Total energy for state  2:                 -1973.63510242 au
    Multiplicity: Triplet
    Trans. Mom.:  0.0000 X   0.0000 Y   0.0000 Z
    Strength   :     0.0000000000
    D(172) --> V(  2) amplitude = -0.4731
    D(173) --> V(  1) amplitude =  0.8121

 Excited state   3: excitation energy (eV) =    2.4203
 Total energy for state  3:                 -1973.63263614 au
    Multiplicity: Triplet
    Trans. Mom.:  0.0000 X   0.0000 Y   0.0000 Z
    Strength   :     0.0000000000
    D(172) --> V(  1) amplitude =  0.7469
    D(172) --> V(  4) amplitude =  0.2256
    D(173) --> V(  2) amplitude = -0.5348

 Excited state   4: excitation energy (eV) =    2.5399
 Total energy for state  4:                 -1973.62824179 au
    Multiplicity: Triplet
    Trans. Mom.:  0.0000 X   0.0000 Y   0.0000 Z
    Strength   :     0.0000000000
    D(167) --> V(  1) amplitude = -0.7266
    D(174) --> V(  2) amplitude =  0.5560

 Excited state   5: excitation energy (eV) =    2.6863
 Total energy for state  5:                 -1973.62286170 au
    Multiplicity: Singlet
    Trans. Mom.: -0.0836 X   0.0023 Y   0.1517 Z
    Strength   :     0.0019750154
    D(174) --> V(  1) amplitude =  0.9639

 Excited state   6: excitation energy (eV) =    3.0349
 Total energy for state  6:                 -1973.61005085 au
    Multiplicity: Triplet
    Trans. Mom.:  0.0000 X   0.0000 Y   0.0000 Z
    Strength   :     0.0000000000
    D(171) --> V(  1) amplitude =  0.9418

 Excited state   7: excitation energy (eV) =    3.0632
 Total energy for state  7:                 -1973.60901048 au
    Multiplicity: Singlet
    Trans. Mom.: -2.0639 X   0.0535 Y   3.6155 Z
    Strength   :     1.3008917652
    D(173) --> V(  1) amplitude =  0.9403

 Excited state   8: excitation energy (eV) =    3.1134
 Total energy for state  8:                 -1973.60716649 au
    Multiplicity: Singlet
    Trans. Mom.:  0.4181 X  -0.0082 Y  -0.7418 Z
    Strength   :     0.0553132557
    D(171) --> V(  1) amplitude =  0.9512

 Excited state   9: excitation energy (eV) =    3.1975
 Total energy for state  9:                 -1973.60407669 au
    Multiplicity: Triplet
    Trans. Mom.:  0.0000 X   0.0000 Y   0.0000 Z
    Strength   :     0.0000000000
    D(170) --> V(  1) amplitude =  0.9625

 Excited state  10: excitation energy (eV) =    3.2298
 Total energy for state 10:                 -1973.60288789 au
    Multiplicity: Singlet
    Trans. Mom.: -0.0028 X   0.0024 Y  -0.0071 Z
    Strength   :     0.0000050347
    D(170) --> V(  1) amplitude =  0.9699

 Excited state  11: excitation energy (eV) =    3.3929
 Total energy for state 11:                 -1973.59689558 au
    Multiplicity: Singlet
    Trans. Mom.:  0.1149 X   0.0536 Y   0.0686 Z
    Strength   :     0.0017271720
    D(172) --> V(  1) amplitude =  0.9377

 Excited state  12: excitation energy (eV) =    3.4754
 Total energy for state 12:                 -1973.59386340 au
    Multiplicity: Singlet
    Trans. Mom.: -0.9480 X   0.0105 Y  -0.5176 Z
    Strength   :     0.0993475006
    D(167) --> V(  1) amplitude = -0.7531
    D(174) --> V(  2) amplitude =  0.5581

 ---------------------------------------------------

                    Orbital Energies (a.u.)
 --------------------------------------------------------------

 Alpha MOs
 -- Occupied --
-10.468 -10.468 -10.467 -10.467 -10.466 -10.466 -10.466 -10.466
-10.466 -10.465 -10.463 -10.463 -10.462 -10.462 -10.462 -10.462
-10.462 -10.462 -10.458 -10.458 -10.458 -10.458 -10.457 -10.457
-10.457 -10.456 -10.453 -10.453 -10.453 -10.452 -10.451 -10.451
-10.450 -10.450 -10.440 -10.440 -10.439 -10.439 -10.434 -10.434
-10.434 -10.434 -10.428 -10.428 -10.427 -10.427 -10.427 -10.427
-10.424 -10.422  -6.949  -6.945  -1.017  -1.017  -0.964  -0.960
 -0.959  -0.958  -0.935  -0.935  -0.909  -0.900  -0.875  -0.872
 -0.871  -0.871  -0.860  -0.859  -0.849  -0.848  -0.820  -0.816
 -0.814  -0.801  -0.782  -0.782  -0.762  -0.760  -0.760  -0.759
 -0.735  -0.731  -0.731  -0.720  -0.689  -0.686  -0.679  -0.670
 -0.653  -0.645  -0.642  -0.642  -0.640  -0.639  -0.598  -0.593
 -0.592  -0.588  -0.584  -0.577  -0.576  -0.554  -0.549  -0.544
 -0.543  -0.543  -0.527  -0.527  -0.523  -0.511  -0.503  -0.502
 -0.497  -0.496  -0.494  -0.488  -0.487  -0.487  -0.482  -0.481
 -0.481  -0.480  -0.476  -0.467  -0.467  -0.466  -0.466  -0.465
 -0.464  -0.461  -0.458  -0.457  -0.451  -0.451  -0.447  -0.445
 -0.442  -0.441  -0.434  -0.432  -0.428  -0.425  -0.419  -0.413
 -0.413  -0.402  -0.399  -0.398  -0.398  -0.394  -0.392  -0.390
 -0.386  -0.382  -0.382  -0.381  -0.380  -0.370  -0.358  -0.352
 -0.351  -0.339  -0.327  -0.321  -0.298  -0.298  -0.281  -0.277
 -0.277  -0.270  -0.267  -0.265  -0.258  -0.254

          Ground-State Mulliken Net Atomic Charges

     Atom                 Charge (a.u.)
  ----------------------------------------
      1 C                    -0.155642
      2 C                    -0.389324
      3 H                     0.250011
      4 C                     0.078691
      5 C                     0.186950
      6 C                    -0.388409
      7 H                     0.255273
      8 C                    -0.233571
      9 H                     0.260337
     10 C                    -0.348822
     11 H                     0.258357
     12 C                    -0.084475
     13 C                     0.224460
     14 C                     0.181255
     15 C                    -0.383245
     16 H                     0.255309
     17 C                    -0.234735
     18 H                     0.260615
     19 C                    -0.347079
     20 H                     0.258338
     21 C                     0.073594
     22 C                    -0.389796
     23 H                     0.248624
     24 C                    -0.155114
     25 B                     0.674086
     26 C                    -0.156109
     27 C                    -0.391964
     28 H                     0.248921
     29 C                     0.080493
     30 C                     0.186963
     31 C                    -0.388992
     32 H                     0.255503
     33 C                    -0.233411
     34 H                     0.260273
     35 C                    -0.349680
     36 H                     0.258496
     37 C                    -0.082976
     38 C                     0.225905
     39 C                     0.177990
     40 C                    -0.382060
     41 H                     0.255348
     42 C                    -0.234665
     43 H                     0.260720
     44 C                    -0.347413
     45 H                     0.258167
     46 C                     0.073307
     47 C                    -0.389127
     48 H                     0.248312
     49 C                    -0.155014
     50 B                     0.676641
     51 C                    -0.223202
     52 C                     0.052987
     53 C                    -0.371175
     54 H                     0.227428
     55 C                     0.107681
     56 C                    -0.364144
     57 H                     0.226174
     58 C                     0.048965
     59 C                    -0.723094
     60 H                     0.239097
     61 H                     0.239012
     62 H                     0.240610
     63 C                    -0.772428
     64 H                     0.251369
     65 H                     0.246409
     66 H                     0.246441
     67 C                    -0.774027
     68 H                     0.251971
     69 H                     0.246984
     70 H                     0.247003
     71 C                    -0.219238
     72 C                     0.044502
     73 C                    -0.372325
     74 H                     0.227865
     75 C                     0.108445
     76 C                    -0.360128
     77 H                     0.226376
     78 C                     0.048445
     79 C                    -0.723272
     80 H                     0.239367
     81 H                     0.239357
     82 H                     0.240709
     83 C                    -0.770494
     84 H                     0.251189
     85 H                     0.245966
     86 H                     0.245810
     87 C                    -0.772947
     88 H                     0.252105
     89 H                     0.246530
     90 H                     0.246362
  ----------------------------------------
  Sum of atomic charges =    -0.000000

                    Cartesian Multipole Moments
 -----------------------------------------------------------------
    Charge (ESU x 10^10)
                -0.0000
    Dipole Moment (Debye)
         X      -0.0878      Y      -0.0675      Z      -0.0072
       Tot       0.1110
    Quadrupole Moments (Debye-Ang)
        XX    -245.5259     XY      -0.0373     YY    -301.2924
        XZ     -10.9915     YZ       1.1793     ZZ    -232.0093

 Total job time:  10199.52s(wall), 45815.05s(cpu)
        *  Thank you very much for using Q-Chem.  Have a nice day.  *
