 Q-Chem 5.0, Q-Chem, Inc., Pleasanton, CA (2017)
 Q-Chem 5.0.1 for Intel X86 EM64T Linux

User input:
--------------------------------------------------------------
$rem
threads 8
jobtype	sp
method PBEh-3c
basis def2-mSVP
mem_static	1024
mem_total	8000
sym_ignore	true
unrestricted true
scf_convergence	9
solvent_method	pcm
$end

$molecule
read incoords_2.mol
$end

$solvent
dielectric	2.03
$end

$pcm
theory iefpcm
$end
--------------------------------------------------------------

   17   -1855.5296289689      5.89E-10 Convergence criterion met
 Total energy in the final basis set = -1855.52962897
 Total job time:  1624.50s(wall), 4735.80s(cpu)
        *  Thank you very much for using Q-Chem.  Have a nice day.  *
 Q-Chem 5.0, Q-Chem, Inc., Pleasanton, CA (2017)
 Q-Chem 5.0.1 for Intel X86 EM64T Linux

User input:
--------------------------------------------------------------

$rem
threads 8
jobtype opt
method PBEh-3c
basis def2-mSVP
scf_guess	read
mem_static      1024
mem_total       8000
sym_ignore      true
unrestricted true
mom_start       1
scf_algorithm	diis
scf_max_cycles	250
solvent_method	pcm
geom_opt_tol_energy 25
geom_opt_tol_gradient 75
$end

$solvent
dielectric      2.03
$end
$pcm
theory iefpcm
$end

$occupied
1 2 3 4 5 6 7 8 9 10 11 12 13 14 15 16 17 18 19 20 21 22 23 24 25 26 27 28 29 30 31 32 33 34 35 36 37 38 39 40 41 42 43 44 45 46 47 48 49 50 51 52 53 54 55 56 57 58 59 60 61 62 63 64 65 66 67 68 69 70 71 72 73 74 75 76 77 78 79 80 81 82 83 84 85 86 87 88 89 90 91 92 93 94 95 96 97 98 99 100 101 102 103 104 105 106 107 108 109 110 111 112 113 114 115 116 117 118 119 120 121 122 123 124 125 126 127 128 129 130 131 132 133 134 135 136 137 138 139 140 141 142 143 144 145 146 147 148 149 150 151 152 153 154 155 156 157 159
1 2 3 4 5 6 7 8 9 10 11 12 13 14 15 16 17 18 19 20 21 22 23 24 25 26 27 28 29 30 31 32 33 34 35 36 37 38 39 40 41 42 43 44 45 46 47 48 49 50 51 52 53 54 55 56 57 58 59 60 61 62 63 64 65 66 67 68 69 70 71 72 73 74 75 76 77 78 79 80 81 82 83 84 85 86 87 88 89 90 91 92 93 94 95 96 97 98 99 100 101 102 103 104 105 106 107 108 109 110 111 112 113 114 115 116 117 118 119 120 121 122 123 124 125 126 127 128 129 130 131 132 133 134 135 136 137 138 139 140 141 142 143 144 145 146 147 148 149 150 151 152 153 154 155 156 157 158
$end

$molecule
read incoords_2.mol
$end

--------------------------------------------------------------

   19   -1855.4236596564      6.73E-09 Convergence criterion met
 Total energy in the final basis set = -1855.42365966
   16   -1855.4243213655      8.74E-09 Convergence criterion met
 Total energy in the final basis set = -1855.42432137
   16   -1855.4242857238      8.58E-09 Convergence criterion met
 Total energy in the final basis set = -1855.42428572
   16   -1855.4244248514      8.01E-09 Convergence criterion met
 Total energy in the final basis set = -1855.42442485
   16   -1855.4244993299      8.19E-09 Convergence criterion met
 Total energy in the final basis set = -1855.42449933
   16   -1855.4245182163      7.54E-09 Convergence criterion met
 Total energy in the final basis set = -1855.42451822
   16   -1855.4245435019      7.28E-09 Convergence criterion met
 Total energy in the final basis set = -1855.42454350
   16   -1855.4245393807      7.29E-09 Convergence criterion met
 Total energy in the final basis set = -1855.42453938
   16   -1855.4245578519      7.40E-09 Convergence criterion met
 Total energy in the final basis set = -1855.42455785
   16   -1855.4245530040      7.05E-09 Convergence criterion met
 Total energy in the final basis set = -1855.42455300
   16   -1855.4245551771      7.70E-09 Convergence criterion met
 Total energy in the final basis set = -1855.42455518

             Standard Nuclear Orientation (Angstroms)
    I     Atom           X                Y                Z
 ----------------------------------------------------------------
    1      N       0.1553807834     0.2839737090     0.0325781163
    2      C       0.0777793905     0.4884198690     1.3926213247
    3      C       1.2160430737     0.9484946284     2.0841448004
    4      H       2.1465132636     1.1052371577     1.5593856323
    5      C       1.1462988132     1.1861779062     3.4339793612
    6      H       2.0215295059     1.5391652188     3.9606630965
    7      C      -0.0470482605     0.9616622614     4.1167742990
    8      H      -0.1088987876     1.1492398968     5.1799111558
    9      C      -1.1548057540     0.4798202342     3.4390990995
   10      H      -2.0629948966     0.2926114830     3.9963170993
   11      C      -1.1241117587     0.2240580067     2.0763596838
   12      C      -0.8843408012    -0.2278709378    -0.7105446601
   13      C      -0.7220294998    -0.4093724420    -2.1016519467
   14      H       0.1961107918    -0.1296850863    -2.5940749181
   15      C      -1.7341201736    -0.9600014413    -2.8459861646
   16      H      -1.5929026862    -1.1109390447    -3.9067752613
   17      C      -2.9306133353    -1.3214687445    -2.2318591867
   18      H      -3.7309335853    -1.7588905444    -2.8129865848
   19      C      -3.1009043404    -1.1135118475    -0.8735149975
   20      H      -4.0454790954    -1.3863843286    -0.4230241553
   21      C      -2.0989502381    -0.5678366604    -0.0844759438
   22      C       1.3873490883     0.5614287510    -0.6493762294
   23      C       2.1640629944    -0.5070239390    -1.0291295309
   24      H       1.8348367639    -1.5015314001    -0.7561569035
   25      C       1.7385760669     1.8604841393    -0.9722451919
   26      H       1.1204258814     2.7019135612    -0.6876127233
   27      C       2.8976264316     2.0309438553    -1.6994853715
   28      H       3.1879192632     3.0345399892    -1.9835590874
   29      C       3.3322320051    -0.3428428454    -1.7745847165
   30      C       3.7012409356     0.9618643868    -2.1189840045
   31      C       4.8788217838     1.2917029242    -2.9853821838
   32      H       4.8132750117     2.3451727103    -3.2635009873
   33      H       5.8116625915     1.1775026340    -2.4269336610
   34      C      -2.3431782188    -0.3400310765     1.3855531530
   35      C      -2.7042090780    -1.6867722538     2.0442399506
   36      H      -3.5962463624    -2.1178949554     1.5911243088
   37      H      -2.9123095692    -1.5584529432     3.1054383868
   38      H      -1.8916355898    -2.4049917370     1.9402511159
   39      C       4.9373004962     0.4195576574    -4.2410876038
   40      H       5.4416238639     0.9701803690    -5.0368744448
   41      H       3.9137910503     0.2558486851    -4.6013489935
   42      C       5.6877838966    -0.8475819889    -3.9784897497
   43      C       6.7883069717    -1.1239729773    -4.7444504942
   44      H       7.0124572336    -0.4719357572    -5.5820150274
   45      C       7.6711092082    -2.1918142049    -4.4892762570
   46      C       7.3992532286    -2.9912077857    -3.3194289865
   47      C       6.2641459419    -2.7101021861    -2.5578479641
   48      H       6.0756859742    -3.3691654792    -1.7210748630
   49      C       5.3854263935    -1.6779024521    -2.8355917702
   50      C       8.7626689327    -2.4219626713    -5.3317598373
   51      N       9.6673960332    -2.5963546907    -6.0414700349
   52      C       8.2336421171    -4.0542421142    -2.9313946729
   53      N       8.9126339018    -4.9356196596    -2.6027430971
   54      C       4.0318685606    -1.6714476375    -2.1282312216
   55      C       4.1006967320    -2.4759758555    -0.8354927172
   56      C       4.7991813698    -2.1688940251     0.3151492936
   57      H       5.4101434845    -1.2761282835     0.3661190630
   58      C       4.7253711197    -3.0419052669     1.3936680061
   59      H       5.2782365793    -2.8253677637     2.2983461004
   60      C       3.9587847841    -4.2009750874     1.3166351770
   61      H       3.9196022831    -4.8737057343     2.1634477210
   62      C       3.2548400424    -4.5066580257     0.1614042189
   63      H       2.6653739449    -5.4134828844     0.1030195281
   64      C       3.3314593412    -3.6345816452    -0.9150362988
   65      C       2.6965267002    -3.6829282737    -2.2262562311
   66      C       1.8577336436    -4.6366563018    -2.7821387702
   67      H       1.5873634562    -5.5286846668    -2.2300798269
   68      C       1.3764700551    -4.4373015863    -4.0685661499
   69      H       0.7298944341    -5.1763710218    -4.5235024028
   70      C       1.7344264055    -3.2981466537    -4.7809875210
   71      H       1.3653247137    -3.1590640955    -5.7891040314
   72      C       2.5767350076    -2.3427747295    -4.2226743535
   73      H       2.8597352668    -1.4745127656    -4.8019140241
   74      C       3.0597045795    -2.5373184973    -2.9401908053
   75      C      -3.5153115102     0.6513609431     1.5353126551
   76      H      -3.2866304721     1.6072168414     1.0646810583
   77      H      -4.4186674837     0.2554186334     1.0726190498
   78      H      -3.7403926904     0.8338485445     2.5854131048
 ----------------------------------------------------------------

   16   -1855.4245546840      8.13E-09 Convergence criterion met
 Total energy in the final basis set = -1855.42455468
 Final energy is   -1855.42455468395
 **  OPTIMIZATION CONVERGED  **

                    Orbital Energies (a.u.)
 --------------------------------------------------------------

 Alpha MOs
 -- Occupied --
-14.792 -14.584 -14.580 -10.564 -10.563 -10.528 -10.525 -10.522
-10.522 -10.505 -10.503 -10.503 -10.501 -10.501 -10.500 -10.498
-10.496 -10.487 -10.485 -10.483 -10.482 -10.480 -10.474 -10.471
-10.470 -10.455 -10.455 -10.455 -10.453 -10.451 -10.450 -10.449
-10.448 -10.448 -10.447 -10.446 -10.445 -10.442 -10.435 -10.432
-10.430 -10.426 -10.424 -10.423 -10.422 -10.419 -10.418  -1.169
 -1.026  -1.021  -1.011  -0.988  -0.966  -0.962  -0.950  -0.950
 -0.937  -0.916  -0.911  -0.910  -0.897  -0.877  -0.873  -0.871
 -0.858  -0.842  -0.837  -0.826  -0.813  -0.810  -0.807  -0.779
 -0.775  -0.768  -0.749  -0.729  -0.725  -0.716  -0.709  -0.687
 -0.680  -0.677  -0.672  -0.666  -0.663  -0.653  -0.648  -0.632
 -0.596  -0.594  -0.592  -0.583  -0.583  -0.582  -0.580  -0.563
 -0.557  -0.554  -0.547  -0.545  -0.542  -0.539  -0.537  -0.530
 -0.525  -0.516  -0.512  -0.504  -0.502  -0.498  -0.495  -0.491
 -0.490  -0.486  -0.481  -0.478  -0.478  -0.475  -0.470  -0.465
 -0.464  -0.460  -0.455  -0.449  -0.443  -0.438  -0.434  -0.432
 -0.424  -0.424  -0.420  -0.418  -0.413  -0.411  -0.406  -0.397
 -0.394  -0.388  -0.385  -0.380  -0.371  -0.369  -0.364  -0.348
 -0.343  -0.338  -0.337  -0.333  -0.332  -0.326  -0.323  -0.314
 -0.292  -0.288  -0.269  -0.259  -0.251  -0.106

 Beta MOs
 -- Occupied --
-14.804 -14.581 -14.575 -10.562 -10.562 -10.527 -10.526 -10.525
-10.525 -10.507 -10.506 -10.505 -10.505 -10.499 -10.498 -10.497
-10.494 -10.487 -10.486 -10.483 -10.482 -10.480 -10.474 -10.472
-10.470 -10.455 -10.455 -10.455 -10.452 -10.451 -10.450 -10.449
-10.449 -10.448 -10.447 -10.445 -10.445 -10.442 -10.436 -10.432
-10.432 -10.424 -10.422 -10.420 -10.420 -10.417 -10.416  -1.188
 -1.031  -1.025  -1.011  -0.989  -0.969  -0.956  -0.950  -0.943
 -0.934  -0.919  -0.910  -0.908  -0.899  -0.877  -0.877  -0.872
 -0.858  -0.844  -0.837  -0.821  -0.815  -0.809  -0.806  -0.781
 -0.779  -0.766  -0.748  -0.731  -0.726  -0.715  -0.710  -0.684
 -0.681  -0.678  -0.675  -0.665  -0.663  -0.653  -0.647  -0.632
 -0.604  -0.599  -0.594  -0.590  -0.584  -0.583  -0.580  -0.564
 -0.558  -0.556  -0.552  -0.546  -0.544  -0.539  -0.538  -0.531
 -0.525  -0.517  -0.515  -0.511  -0.504  -0.503  -0.494  -0.491
 -0.490  -0.486  -0.481  -0.479  -0.478  -0.475  -0.471  -0.470
 -0.464  -0.459  -0.454  -0.452  -0.448  -0.439  -0.435  -0.434
 -0.428  -0.424  -0.421  -0.419  -0.411  -0.407  -0.400  -0.396
 -0.393  -0.386  -0.382  -0.375  -0.367  -0.363  -0.361  -0.351
 -0.351  -0.343  -0.335  -0.331  -0.330  -0.323  -0.321  -0.316
 -0.303  -0.291  -0.287  -0.258  -0.252  -0.219

          Ground-State Mulliken Net Atomic Charges

     Atom                 Charge (a.u.)    Spin (a.u.)
  --------------------------------------------------------
      1 N                    -0.605314      -0.438450
      2 C                     0.299860       0.100243
      3 C                    -0.265727      -0.179550
      4 H                     0.309871       0.009613
      5 C                    -0.238839       0.129551
      6 H                     0.270726      -0.005895
      7 C                    -0.199017      -0.245437
      8 H                     0.267904       0.013184
      9 C                    -0.300857       0.147306
     10 H                     0.253542      -0.006979
     11 C                     0.191497      -0.225068
     12 C                     0.286680       0.094478
     13 C                    -0.251222      -0.181869
     14 H                     0.311158       0.009827
     15 C                    -0.233121       0.131697
     16 H                     0.272339      -0.005968
     17 C                    -0.198105      -0.253028
     18 H                     0.267978       0.013567
     19 C                    -0.300078       0.149902
     20 H                     0.253313      -0.007077
     21 C                     0.192016      -0.229108
     22 C                     0.114908       0.032958
     23 C                    -0.239434      -0.026626
     24 H                     0.286137       0.001185
     25 C                    -0.233973      -0.024683
     26 H                     0.254732       0.001194
     27 C                    -0.315092       0.011521
     28 H                     0.245227      -0.001196
     29 C                     0.232899       0.018562
     30 C                     0.060840      -0.017814
     31 C                    -0.509201       0.009602
     32 H                     0.236556      -0.001343
     33 H                     0.269173      -0.001560
     34 C                    -0.240205       0.037731
     35 C                    -0.607819      -0.021270
     36 H                     0.242582      -0.000265
     37 H                     0.242156      -0.000178
     38 H                     0.253688       0.000781
     39 C                    -0.547467      -0.015127
     40 H                     0.249722       0.000374
     41 H                     0.216789       0.014415
     42 C                     0.093650       0.176885
     43 C                    -0.330877      -0.103132
     44 H                     0.211686       0.004293
     45 C                    -0.005676       0.334888
     46 C                     0.004103       0.244847
     47 C                    -0.295989      -0.143823
     48 H                     0.243773       0.007178
     49 C                     0.103802       0.246711
     50 C                    -0.057035      -0.093811
     51 N                    -0.279630       0.201646
     52 C                    -0.043910      -0.068708
     53 N                    -0.270754       0.143625
     54 C                    -0.403442      -0.011726
     55 C                     0.020931       0.005197
     56 C                    -0.264737      -0.000252
     57 H                     0.237292       0.000499
     58 C                    -0.244795       0.001577
     59 H                     0.232851      -0.000078
     60 C                    -0.227672      -0.001698
     61 H                     0.232669       0.000123
     62 C                    -0.343943       0.001781
     63 H                     0.220983      -0.000067
     64 C                     0.154954      -0.003722
     65 C                     0.111726       0.012907
     66 C                    -0.329475      -0.010689
     67 H                     0.216846       0.000725
     68 C                    -0.239398       0.023585
     69 H                     0.229097      -0.001481
     70 C                    -0.233495      -0.013907
     71 H                     0.229214       0.000846
     72 C                    -0.308744       0.022357
     73 H                     0.234749      -0.001421
     74 C                     0.176761       0.007537
     75 C                    -0.604695      -0.022139
     76 H                     0.246671       0.000832
     77 H                     0.243143      -0.000206
     78 H                     0.242543      -0.000383
  --------------------------------------------------------
  Sum of atomic charges =    -0.000000

                    Cartesian Multipole Moments
 -----------------------------------------------------------------
    Charge (ESU x 10^10)
                -0.0000
    Dipole Moment (Debye)
         X     -37.4994      Y      14.5223      Z      18.6034
       Tot      44.3079
    Quadrupole Moments (Debye-Ang)
        XX    -558.0416     XY     144.7086     YY    -310.8138
        XZ     154.3034     YZ     -53.6349     ZZ    -307.5878

 Total job time:  19872.73s(wall), 58314.67s(cpu)
        *  Thank you very much for using Q-Chem.  Have a nice day.  *
