 Q-Chem 5.0, Q-Chem, Inc., Pleasanton, CA (2017)
 Q-Chem 5.0.1 for Intel X86 EM64T Linux

User input:
--------------------------------------------------------------
$rem
threads 8
jobtype	sp
method PBEh-3c
basis def2-mSVP
mem_static	1024
mem_total	8000
sym_ignore	true
unrestricted true
scf_convergence	9
solvent_method	pcm
$end

$molecule
read incoords_2.mol
$end

$solvent
dielectric	4.33
$end

$pcm
theory iefpcm
$end
--------------------------------------------------------------

   17   -1855.5397261619      6.20E-10 Convergence criterion met
 Total energy in the final basis set = -1855.53972616
 Total job time:  1614.17s(wall), 4645.90s(cpu)
        *  Thank you very much for using Q-Chem.  Have a nice day.  *
 Q-Chem 5.0, Q-Chem, Inc., Pleasanton, CA (2017)
 Q-Chem 5.0.1 for Intel X86 EM64T Linux

User input:
--------------------------------------------------------------

$rem
threads 8
jobtype opt
method PBEh-3c
basis def2-mSVP
scf_guess	read
mem_static      1024
mem_total       8000
sym_ignore      true
unrestricted true
mom_start       1
scf_algorithm	diis
scf_max_cycles	250
solvent_method	pcm
geom_opt_tol_energy 25
geom_opt_tol_gradient 75
$end

$solvent
dielectric      4.33
$end

$pcm
theory iefpcm
$end

$occupied
1 2 3 4 5 6 7 8 9 10 11 12 13 14 15 16 17 18 19 20 21 22 23 24 25 26 27 28 29 30 31 32 33 34 35 36 37 38 39 40 41 42 43 44 45 46 47 48 49 50 51 52 53 54 55 56 57 58 59 60 61 62 63 64 65 66 67 68 69 70 71 72 73 74 75 76 77 78 79 80 81 82 83 84 85 86 87 88 89 90 91 92 93 94 95 96 97 98 99 100 101 102 103 104 105 106 107 108 109 110 111 112 113 114 115 116 117 118 119 120 121 122 123 124 125 126 127 128 129 130 131 132 133 134 135 136 137 138 139 140 141 142 143 144 145 146 147 148 149 150 151 152 153 154 155 156 157 159
1 2 3 4 5 6 7 8 9 10 11 12 13 14 15 16 17 18 19 20 21 22 23 24 25 26 27 28 29 30 31 32 33 34 35 36 37 38 39 40 41 42 43 44 45 46 47 48 49 50 51 52 53 54 55 56 57 58 59 60 61 62 63 64 65 66 67 68 69 70 71 72 73 74 75 76 77 78 79 80 81 82 83 84 85 86 87 88 89 90 91 92 93 94 95 96 97 98 99 100 101 102 103 104 105 106 107 108 109 110 111 112 113 114 115 116 117 118 119 120 121 122 123 124 125 126 127 128 129 130 131 132 133 134 135 136 137 138 139 140 141 142 143 144 145 146 147 148 149 150 151 152 153 154 155 156 157 158
$end

$molecule
read incoords_2.mol
$end

--------------------------------------------------------------

   19   -1855.4474364089      6.55E-09 Convergence criterion met
 Total energy in the final basis set = -1855.44743641
   16   -1855.4486738087      9.88E-09 Convergence criterion met
 Total energy in the final basis set = -1855.44867381
   17   -1855.4486831196      7.39E-09 Convergence criterion met
 Total energy in the final basis set = -1855.44868312
   17   -1855.4488749751      6.43E-09 Convergence criterion met
 Total energy in the final basis set = -1855.44887498
   17   -1855.4489520334      6.94E-09 Convergence criterion met
 Total energy in the final basis set = -1855.44895203
   17   -1855.4490045141      8.13E-09 Convergence criterion met
 Total energy in the final basis set = -1855.44900451
   17   -1855.4490019663      7.62E-09 Convergence criterion met
 Total energy in the final basis set = -1855.44900197
   17   -1855.4489979872      9.32E-09 Convergence criterion met
 Total energy in the final basis set = -1855.44899799
   18   -1855.4490018080      6.83E-09 Convergence criterion met
 Total energy in the final basis set = -1855.44900181

             Standard Nuclear Orientation (Angstroms)
    I     Atom           X                Y                Z
 ----------------------------------------------------------------
    1      N       0.1479566176     0.2945559232     0.0205084000
    2      C       0.0796401467     0.4707871698     1.3841129525
    3      C       1.2215077602     0.9192039579     2.0780939278
    4      H       2.1473773533     1.0961943910     1.5515566635
    5      C       1.1605997194     1.1240430433     3.4336183800
    6      H       2.0378420450     1.4688535010     3.9624774886
    7      C      -0.0277820046     0.8789553842     4.1194574119
    8      H      -0.0823445006     1.0401747456     5.1873450121
    9      C      -1.1403952341     0.4133202567     3.4380933434
   10      H      -2.0447701790     0.2123145929     3.9968341457
   11      C      -1.1187133160     0.1918402870     2.0690171832
   12      C      -0.9002884432    -0.1884348969    -0.7295507998
   13      C      -0.7476778639    -0.3340905990    -2.1259368248
   14      H       0.1690873018    -0.0476916299    -2.6173676282
   15      C      -1.7700259960    -0.8538049169    -2.8785896064
   16      H      -1.6397154276    -0.9727737875    -3.9449575918
   17      C      -2.9651229140    -1.2247508354    -2.2658939930
   18      H      -3.7728443803    -1.6394805075    -2.8534188507
   19      C      -3.1240632276    -1.0552283353    -0.9009912614
   20      H      -4.0662925323    -1.3368956878    -0.4511013237
   21      C      -2.1128995147    -0.5367317425    -0.1046157731
   22      C       1.3806221707     0.5688669994    -0.6623169258
   23      C       2.1579936511    -0.5014171596    -1.0350147270
   24      H       1.8269705949    -1.4932848326    -0.7547024583
   25      C       1.7306485023     1.8655535939    -0.9935171811
   26      H       1.1117523410     2.7075737169    -0.7125937852
   27      C       2.8894308139     2.0336660208    -1.7220475874
   28      H       3.1791192931     3.0360878099    -2.0109082870
   29      C       3.3262333891    -0.3395496855    -1.7816997714
   30      C       3.6927491607     0.9625380906    -2.1355086504
   31      C       4.8686882904     1.2894188603    -3.0057863995
   32      H       4.7967755619     2.3388788393    -3.2956488464
   33      H       5.8026461844     1.1894959436    -2.4461763940
   34      C      -2.3439542768    -0.3502227550     1.3726403383
   35      C      -2.7029463567    -1.7140539867     1.9966987994
   36      H      -3.6029877510    -2.1268892338     1.5423777056
   37      H      -2.8966202609    -1.6129998436     3.0634960192
   38      H      -1.8943402414    -2.4317686633     1.8616963171
   39      C       4.9312848754     0.4079573872    -4.2540899114
   40      H       5.4318882514     0.9540551810    -5.0551998443
   41      H       3.9105950246     0.2304560657    -4.6124547497
   42      C       5.6890375978    -0.8532441319    -3.9820829520
   43      C       6.7920083502    -1.1265536736    -4.7439061556
   44      H       7.0179945449    -0.4724659003    -5.5792804879
   45      C       7.6742783399    -2.1984657427    -4.4874712109
   46      C       7.3958234528    -3.0019696750    -3.3210368756
   47      C       6.2544750918    -2.7178460668    -2.5614572328
   48      H       6.0610614524    -3.3764300956    -1.7254519863
   49      C       5.3803191349    -1.6873031425    -2.8431935629
   50      C       8.7686942263    -2.4325551771    -5.3204097079
   51      N       9.6822336441    -2.6207629877    -6.0180015132
   52      C       8.2255077917    -4.0668783523    -2.9404518822
   53      N       8.9103769968    -4.9514517492    -2.6270319298
   54      C       4.0299427859    -1.6687094630    -2.1231127731
   55      C       4.1140682727    -2.4574177377    -0.8210637474
   56      C       4.8084099061    -2.1265891529     0.3254905510
   57      H       5.3990564908    -1.2198696527     0.3714581235
   58      C       4.7489652949    -2.9897660917     1.4133936301
   59      H       5.2940881860    -2.7517913483     2.3174488306
   60      C       4.0016240664    -4.1625912284     1.3490999444
   61      H       3.9709432975    -4.8249093532     2.2044707717
   62      C       3.3008793773    -4.4916860401     0.1978511539
   63      H       2.7213459167    -5.4055442143     0.1506314319
   64      C       3.3629375264    -3.6286878373    -0.8871267122
   65      C       2.7207684550    -3.6972936370    -2.1943442076
   66      C       1.8861679713    -4.6646092382    -2.7341838748
   67      H       1.6294314599    -5.5541564310    -2.1716587487
   68      C       1.3861830965    -4.4776715078    -4.0155497234
   69      H       0.7386276966    -5.2246073730    -4.4561006357
   70      C       1.7193145290    -3.3374076519    -4.7385053531
   71      H       1.3285861448    -3.2040663880    -5.7391544511
   72      C       2.5587191497    -2.3695587655    -4.1962361089
   73      H       2.8148042788    -1.4960184381    -4.7805203903
   74      C       3.0620453453    -2.5532004309    -2.9206097148
   75      C      -3.5122901950     0.6395492921     1.5615651051
   76      H      -3.2819897511     1.6095423936     1.1215880726
   77      H      -4.4192107490     0.2607226422     1.0912727996
   78      H      -3.7291858038     0.7851416853     2.6191196070
 ----------------------------------------------------------------

   18   -1855.4490046838      6.62E-09 Convergence criterion met
 Total energy in the final basis set = -1855.44900468
 Final energy is   -1855.44900468380
 **  OPTIMIZATION CONVERGED  **

                    Orbital Energies (a.u.)
 --------------------------------------------------------------

 Alpha MOs
 -- Occupied --
-14.781 -14.603 -14.599 -10.551 -10.551 -10.521 -10.511 -10.509
-10.509 -10.492 -10.491 -10.489 -10.488 -10.487 -10.486 -10.486
-10.485 -10.485 -10.484 -10.479 -10.478 -10.475 -10.468 -10.459
-10.458 -10.457 -10.456 -10.455 -10.455 -10.454 -10.452 -10.451
-10.451 -10.450 -10.450 -10.450 -10.449 -10.448 -10.447 -10.442
-10.441 -10.438 -10.437 -10.435 -10.435 -10.431 -10.430  -1.158
 -1.018  -1.008  -1.008  -0.984  -0.980  -0.969  -0.952  -0.952
 -0.946  -0.915  -0.909  -0.903  -0.883  -0.877  -0.872  -0.860
 -0.859  -0.840  -0.838  -0.835  -0.812  -0.809  -0.797  -0.776
 -0.767  -0.762  -0.746  -0.725  -0.717  -0.714  -0.706  -0.691
 -0.677  -0.669  -0.666  -0.663  -0.658  -0.655  -0.650  -0.632
 -0.602  -0.586  -0.583  -0.581  -0.578  -0.570  -0.569  -0.564
 -0.554  -0.549  -0.544  -0.541  -0.533  -0.530  -0.528  -0.523
 -0.518  -0.513  -0.511  -0.506  -0.501  -0.497  -0.489  -0.486
 -0.483  -0.482  -0.478  -0.476  -0.472  -0.466  -0.464  -0.462
 -0.459  -0.455  -0.450  -0.447  -0.441  -0.438  -0.430  -0.426
 -0.426  -0.420  -0.417  -0.414  -0.412  -0.406  -0.403  -0.403
 -0.402  -0.397  -0.395  -0.390  -0.389  -0.383  -0.373  -0.356
 -0.352  -0.344  -0.336  -0.335  -0.326  -0.324  -0.320  -0.311
 -0.295  -0.290  -0.282  -0.271  -0.256  -0.122

 Beta MOs
 -- Occupied --
-14.792 -14.600 -14.595 -10.550 -10.550 -10.520 -10.512 -10.512
-10.510 -10.495 -10.494 -10.492 -10.492 -10.486 -10.485 -10.485
-10.484 -10.483 -10.482 -10.479 -10.478 -10.475 -10.468 -10.458
-10.458 -10.457 -10.456 -10.456 -10.455 -10.455 -10.453 -10.452
-10.451 -10.450 -10.450 -10.450 -10.449 -10.448 -10.447 -10.442
-10.438 -10.437 -10.436 -10.433 -10.433 -10.432 -10.428  -1.177
 -1.020  -1.012  -1.010  -0.985  -0.974  -0.963  -0.956  -0.952
 -0.941  -0.913  -0.909  -0.906  -0.886  -0.877  -0.870  -0.863
 -0.858  -0.842  -0.838  -0.830  -0.812  -0.808  -0.800  -0.774
 -0.768  -0.766  -0.744  -0.726  -0.717  -0.714  -0.707  -0.689
 -0.678  -0.668  -0.668  -0.663  -0.661  -0.655  -0.651  -0.632
 -0.601  -0.594  -0.586  -0.584  -0.582  -0.571  -0.570  -0.564
 -0.555  -0.550  -0.544  -0.543  -0.540  -0.531  -0.528  -0.524
 -0.518  -0.513  -0.511  -0.506  -0.505  -0.496  -0.493  -0.490
 -0.487  -0.482  -0.480  -0.477  -0.473  -0.467  -0.465  -0.462
 -0.458  -0.457  -0.453  -0.446  -0.443  -0.437  -0.429  -0.426
 -0.425  -0.423  -0.419  -0.414  -0.411  -0.410  -0.407  -0.399
 -0.397  -0.396  -0.393  -0.387  -0.381  -0.372  -0.370  -0.350
 -0.349  -0.344  -0.342  -0.338  -0.334  -0.330  -0.321  -0.312
 -0.294  -0.291  -0.288  -0.269  -0.257  -0.233

          Ground-State Mulliken Net Atomic Charges

     Atom                 Charge (a.u.)    Spin (a.u.)
  --------------------------------------------------------
      1 N                    -0.606324      -0.435508
      2 C                     0.306271       0.095423
      3 C                    -0.270242      -0.177766
      4 H                     0.309998       0.009574
      5 C                    -0.245248       0.127816
      6 H                     0.277282      -0.005759
      7 C                    -0.204965      -0.248336
      8 H                     0.275965       0.013257
      9 C                    -0.306153       0.148620
     10 H                     0.265715      -0.006961
     11 C                     0.189402      -0.227006
     12 C                     0.292991       0.092640
     13 C                    -0.257057      -0.178524
     14 H                     0.309527       0.009670
     15 C                    -0.241842       0.128407
     16 H                     0.277102      -0.005781
     17 C                    -0.204449      -0.251558
     18 H                     0.275826       0.013410
     19 C                    -0.305648       0.150025
     20 H                     0.265559      -0.007011
     21 C                     0.190543      -0.229371
     22 C                     0.110709       0.033420
     23 C                    -0.236024      -0.024650
     24 H                     0.288724       0.001177
     25 C                    -0.230922      -0.022076
     26 H                     0.267822       0.001050
     27 C                    -0.321643       0.008950
     28 H                     0.254839      -0.001062
     29 C                     0.230111       0.014871
     30 C                     0.058385      -0.013257
     31 C                    -0.514318       0.008479
     32 H                     0.247813      -0.001145
     33 H                     0.265130      -0.001208
     34 C                    -0.235291       0.037886
     35 C                    -0.614658      -0.021823
     36 H                     0.247360      -0.000268
     37 H                     0.247204      -0.000180
     38 H                     0.252331       0.000801
     39 C                    -0.550916      -0.014547
     40 H                     0.254543       0.000409
     41 H                     0.229987       0.012536
     42 C                     0.090217       0.162017
     43 C                    -0.341526      -0.085783
     44 H                     0.223260       0.003124
     45 C                    -0.015762       0.322900
     46 C                    -0.005702       0.255810
     47 C                    -0.303971      -0.141455
     48 H                     0.250017       0.006867
     49 C                     0.112578       0.237591
     50 C                    -0.060274      -0.084662
     51 N                    -0.304590       0.206106
     52 C                    -0.046546      -0.067098
     53 N                    -0.294664       0.155506
     54 C                    -0.402262      -0.014768
     55 C                     0.022303       0.004530
     56 C                    -0.272111      -0.000857
     57 H                     0.243951       0.000377
     58 C                    -0.253110       0.001652
     59 H                     0.243387      -0.000079
     60 C                    -0.237100      -0.001980
     61 H                     0.243715       0.000132
     62 C                    -0.349256       0.001813
     63 H                     0.234133      -0.000075
     64 C                     0.151482      -0.003250
     65 C                     0.108580       0.011005
     66 C                    -0.336354      -0.008839
     67 H                     0.230882       0.000601
     68 C                    -0.247085       0.017535
     69 H                     0.241130      -0.001077
     70 C                    -0.240973      -0.010860
     71 H                     0.240637       0.000660
     72 C                    -0.314658       0.017279
     73 H                     0.241522      -0.000947
     74 C                     0.171848       0.004068
     75 C                    -0.612043      -0.022749
     76 H                     0.247839       0.000851
     77 H                     0.247681      -0.000202
     78 H                     0.247386      -0.000368
  --------------------------------------------------------
  Sum of atomic charges =    -0.000000

                    Cartesian Multipole Moments
 -----------------------------------------------------------------
    Charge (ESU x 10^10)
                -0.0000
    Dipole Moment (Debye)
         X     -40.4901      Y      15.8340      Z      19.8188
       Tot      47.7803
    Quadrupole Moments (Debye-Ang)
        XX    -583.8300     XY     157.4932     YY    -314.0818
        XZ     167.0508     YZ     -60.1169     ZZ    -310.0434

 Total job time:  17495.93s(wall), 51144.76s(cpu)
        *  Thank you very much for using Q-Chem.  Have a nice day.  *
