 Q-Chem 5.0, Q-Chem, Inc., Pleasanton, CA (2017)
 Q-Chem 5.0.1 for Intel X86 EM64T Linux

User input:
--------------------------------------------------------------
$rem
threads 8
jobtype	sp
method PBEh-3c
basis def2-mSVP
mem_static	1024
mem_total	8000
sym_ignore	true
unrestricted true
scf_convergence	9
solvent_method	pcm
$end

$molecule
read incoords_2.mol
$end

$solvent
dielectric	2.38
$end

$pcm
theory iefpcm
$end
--------------------------------------------------------------

   17   -1855.5320817054      5.87E-10 Convergence criterion met
 Total energy in the final basis set = -1855.53208171
 Total job time:  1843.41s(wall), 4957.01s(cpu)
        *  Thank you very much for using Q-Chem.  Have a nice day.  *
 Q-Chem 5.0, Q-Chem, Inc., Pleasanton, CA (2017)
 Q-Chem 5.0.1 for Intel X86 EM64T Linux

User input:
--------------------------------------------------------------

$rem
threads 8
jobtype opt
method PBEh-3c
basis def2-mSVP
scf_guess	read
mem_static      1024
mem_total       8000
sym_ignore      true
unrestricted true
mom_start       1
scf_algorithm	diis
scf_max_cycles	250
solvent_method	pcm
geom_opt_tol_energy 25
geom_opt_tol_gradient 75
$end

$solvent
dielectric      2.38
$end

$pcm
theory iefpcm
$end

$occupied
1 2 3 4 5 6 7 8 9 10 11 12 13 14 15 16 17 18 19 20 21 22 23 24 25 26 27 28 29 30 31 32 33 34 35 36 37 38 39 40 41 42 43 44 45 46 47 48 49 50 51 52 53 54 55 56 57 58 59 60 61 62 63 64 65 66 67 68 69 70 71 72 73 74 75 76 77 78 79 80 81 82 83 84 85 86 87 88 89 90 91 92 93 94 95 96 97 98 99 100 101 102 103 104 105 106 107 108 109 110 111 112 113 114 115 116 117 118 119 120 121 122 123 124 125 126 127 128 129 130 131 132 133 134 135 136 137 138 139 140 141 142 143 144 145 146 147 148 149 150 151 152 153 154 155 156 157 159
1 2 3 4 5 6 7 8 9 10 11 12 13 14 15 16 17 18 19 20 21 22 23 24 25 26 27 28 29 30 31 32 33 34 35 36 37 38 39 40 41 42 43 44 45 46 47 48 49 50 51 52 53 54 55 56 57 58 59 60 61 62 63 64 65 66 67 68 69 70 71 72 73 74 75 76 77 78 79 80 81 82 83 84 85 86 87 88 89 90 91 92 93 94 95 96 97 98 99 100 101 102 103 104 105 106 107 108 109 110 111 112 113 114 115 116 117 118 119 120 121 122 123 124 125 126 127 128 129 130 131 132 133 134 135 136 137 138 139 140 141 142 143 144 145 146 147 148 149 150 151 152 153 154 155 156 157 158
$end

$molecule
read incoords_2.mol
$end

--------------------------------------------------------------

   19   -1855.4296559319      6.49E-09 Convergence criterion met
 Total energy in the final basis set = -1855.42965593
   16   -1855.4304531273      9.52E-09 Convergence criterion met
 Total energy in the final basis set = -1855.43045313
   16   -1855.4303999531      8.78E-09 Convergence criterion met
 Total energy in the final basis set = -1855.43039995
   16   -1855.4305646174      8.20E-09 Convergence criterion met
 Total energy in the final basis set = -1855.43056462
   16   -1855.4306364381      8.34E-09 Convergence criterion met
 Total energy in the final basis set = -1855.43063644
   16   -1855.4306747004      7.94E-09 Convergence criterion met
 Total energy in the final basis set = -1855.43067470
   16   -1855.4306953192      7.91E-09 Convergence criterion met
 Total energy in the final basis set = -1855.43069532
   16   -1855.4306782161      7.94E-09 Convergence criterion met
 Total energy in the final basis set = -1855.43067822
   16   -1855.4306912022      8.65E-09 Convergence criterion met
 Total energy in the final basis set = -1855.43069120
   16   -1855.4306950182      9.43E-09 Convergence criterion met
 Total energy in the final basis set = -1855.43069502

             Standard Nuclear Orientation (Angstroms)
    I     Atom           X                Y                Z
 ----------------------------------------------------------------
    1      N       0.1527348244     0.2857090426     0.0287580312
    2      C       0.0787076797     0.4819123184     1.3899411685
    3      C       1.2188388603     0.9374357700     2.0816028319
    4      H       2.1478358254     1.0991075270     1.5557045736
    5      C       1.1526558621     1.1654350667     3.4332435472
    6      H       2.0291495648     1.5149906133     3.9601372272
    7      C      -0.0391032020     0.9360931367     4.1175913023
    8      H      -0.0980658590     1.1159319393     5.1822387310
    9      C      -1.1491317265     0.4601908757     3.4393279998
   10      H      -2.0561206957     0.2699386756     3.9974811643
   11      C      -1.1220704700     0.2144460307     2.0746456370
   12      C      -0.8900870247    -0.2172591049    -0.7159210035
   13      C      -0.7309977914    -0.3894353400    -2.1085614722
   14      H       0.1872705851    -0.1098107258    -2.6008897671
   15      C      -1.7470045974    -0.9300116134    -2.8549509191
   16      H      -1.6092954021    -1.0726023936    -3.9173845196
   17      C      -2.9435293715    -1.2921379577    -2.2408724913
   18      H      -3.7467212321    -1.7220539187    -2.8236441436
   19      C      -3.1099434469    -1.0946078788    -0.8805337491
   20      H      -4.0541276922    -1.3685028394    -0.4298455249
   21      C      -2.1043695360    -0.5579728952    -0.0896984577
   22      C       1.3845933990     0.5624104976    -0.6540745642
   23      C       2.1619178679    -0.5063009405    -1.0315279025
   24      H       1.8327033647    -1.5001326249    -0.7561252721
   25      C       1.7347541543     1.8608601579    -0.9797962891
   26      H       1.1160866235     2.7022903380    -0.6963810663
   27      C       2.8936128242     2.0309299738    -1.7074985468
   28      H       3.1833338661     3.0342519621    -1.9931558311
   29      C       3.3300847691    -0.3425322212    -1.7773702581
   30      C       3.6977199946     0.9615393845    -2.1248811313
   31      C       4.8748250371     1.2909910021    -2.9922368002
   32      H       4.8068654363     2.3432437851    -3.2739670350
   33      H       5.8079309424     1.1815470370    -2.4332231863
   34      C      -2.3439303623    -0.3417601157     1.3826678526
   35      C      -2.7056374835    -1.6932015771     2.0314172872
   36      H      -3.6008260031    -2.1179285210     1.5784775717
   37      H      -2.9086686068    -1.5728096130     3.0945034016
   38      H      -1.8952208283    -2.4124345061     1.9178087390
   39      C       4.9354891694     0.4158539261    -4.2455507129
   40      H       5.4389144424     0.9652840464    -5.0427085677
   41      H       3.9130030267     0.2478175965    -4.6058259264
   42      C       5.6885724122    -0.8491392543    -3.9795904702
   43      C       6.7904807693    -1.1240659760    -4.7435312320
   44      H       7.0152282214    -0.4714922643    -5.5805004610
   45      C       7.6738810577    -2.1921946157    -4.4871962234
   46      C       7.3999776546    -2.9927167325    -3.3182661466
   47      C       6.2624330574    -2.7114305015    -2.5581273979
   48      H       6.0725532044    -3.3703822491    -1.7215907017
   49      C       5.3844303372    -1.6803685223    -2.8376748656
   50      C       8.7670153297    -2.4222062809    -5.3264014470
   51      N       9.6746839216    -2.5987898905    -6.0325420469
   52      C       8.2334795657    -4.0555435838    -2.9310415772
   53      N       8.9141205521    -4.9372128974    -2.6050601235
   54      C       4.0314914601    -1.6710794909    -2.1273425625
   55      C       4.1042892287    -2.4709286926    -0.8317635720
   56      C       4.8017900869    -2.1572478190     0.3176796406
   57      H       5.4078049113    -1.2609902590     0.3668551201
   58      C       4.7316612553    -3.0272439319     1.3990358406
   59      H       5.2827624423    -2.8048791406     2.3033919910
   60      C       3.9699596906    -4.1898853512     1.3258263719
   61      H       3.9331180404    -4.8596526549     2.1751009174
   62      C       3.2668333500    -4.5021162097     0.1717316628
   63      H       2.6800604791    -5.4108847896     0.1165401647
   64      C       3.3397166637    -3.6328542855    -0.9073116587
   65      C       2.7030926649    -3.6871674434    -2.2175831653
   66      C       1.8656884120    -4.6449099828    -2.7689867572
   67      H       1.5989030642    -5.5360715476    -2.2137758702
   68      C       1.3801425950    -4.4497632857    -4.0544676385
   69      H       0.7337063221    -5.1913514072    -4.5055072689
   70      C       1.7319264369    -3.3108222250    -4.7703317189
   71      H       1.3578945232    -3.1741046069    -5.7769332119
   72      C       2.5731555575    -2.3517458477    -4.2164622035
   73      H       2.8496479510    -1.4826428624    -4.7976875399
   74      C       3.0608173276    -2.5424444941    -2.9353890578
   75      C      -3.5136755803     0.6507369068     1.5443422373
   76      H      -3.2833443278     1.6107510172     1.0830628335
   77      H      -4.4186174671     0.2613279565     1.0791357356
   78      H      -3.7361899587     0.8223972992     2.5968234747
 ----------------------------------------------------------------

   17   -1855.4306956100      4.49E-09 Convergence criterion met
 Total energy in the final basis set = -1855.43069561
 Final energy is   -1855.43069561000
 **  OPTIMIZATION CONVERGED  **

                    Orbital Energies (a.u.)
 --------------------------------------------------------------

 Alpha MOs
 -- Occupied --
-14.789 -14.589 -14.584 -10.560 -10.560 -10.526 -10.522 -10.519
-10.518 -10.501 -10.500 -10.499 -10.498 -10.497 -10.496 -10.495
-10.493 -10.487 -10.483 -10.483 -10.482 -10.479 -10.473 -10.467
-10.466 -10.456 -10.456 -10.455 -10.453 -10.452 -10.450 -10.449
-10.449 -10.449 -10.447 -10.446 -10.446 -10.442 -10.440 -10.435
-10.433 -10.430 -10.427 -10.426 -10.425 -10.422 -10.421  -1.166
 -1.023  -1.018  -1.010  -0.987  -0.966  -0.962  -0.955  -0.950
 -0.939  -0.913  -0.912  -0.909  -0.893  -0.877  -0.871  -0.870
 -0.859  -0.841  -0.837  -0.828  -0.811  -0.809  -0.807  -0.777
 -0.772  -0.768  -0.749  -0.727  -0.723  -0.716  -0.709  -0.688
 -0.679  -0.675  -0.669  -0.667  -0.662  -0.654  -0.649  -0.632
 -0.596  -0.592  -0.589  -0.582  -0.582  -0.579  -0.579  -0.563
 -0.556  -0.551  -0.547  -0.544  -0.540  -0.538  -0.533  -0.527
 -0.526  -0.514  -0.512  -0.505  -0.501  -0.495  -0.494  -0.490
 -0.486  -0.486  -0.481  -0.477  -0.475  -0.473  -0.470  -0.463
 -0.461  -0.460  -0.453  -0.450  -0.441  -0.437  -0.434  -0.429
 -0.425  -0.424  -0.419  -0.415  -0.413  -0.411  -0.406  -0.397
 -0.395  -0.389  -0.388  -0.384  -0.375  -0.374  -0.366  -0.347
 -0.343  -0.337  -0.335  -0.334  -0.332  -0.330  -0.322  -0.313
 -0.293  -0.288  -0.272  -0.261  -0.253  -0.110

 Beta MOs
 -- Occupied --
-14.801 -14.585 -14.580 -10.559 -10.559 -10.526 -10.522 -10.522
-10.521 -10.504 -10.502 -10.502 -10.502 -10.495 -10.494 -10.493
-10.491 -10.486 -10.484 -10.483 -10.482 -10.479 -10.473 -10.468
-10.466 -10.456 -10.456 -10.455 -10.453 -10.452 -10.450 -10.449
-10.449 -10.449 -10.447 -10.446 -10.446 -10.442 -10.441 -10.437
-10.433 -10.427 -10.426 -10.424 -10.423 -10.421 -10.419  -1.185
 -1.028  -1.022  -1.011  -0.988  -0.966  -0.961  -0.950  -0.948
 -0.935  -0.916  -0.910  -0.909  -0.896  -0.877  -0.874  -0.870
 -0.858  -0.843  -0.837  -0.823  -0.811  -0.810  -0.807  -0.778
 -0.777  -0.767  -0.747  -0.728  -0.725  -0.715  -0.709  -0.684
 -0.680  -0.677  -0.671  -0.666  -0.662  -0.654  -0.649  -0.632
 -0.602  -0.596  -0.592  -0.591  -0.581  -0.580  -0.580  -0.564
 -0.557  -0.553  -0.550  -0.545  -0.543  -0.539  -0.534  -0.528
 -0.525  -0.515  -0.513  -0.511  -0.504  -0.500  -0.495  -0.491
 -0.487  -0.486  -0.481  -0.477  -0.476  -0.474  -0.470  -0.467
 -0.462  -0.460  -0.452  -0.450  -0.449  -0.437  -0.434  -0.431
 -0.428  -0.424  -0.420  -0.418  -0.411  -0.408  -0.403  -0.397
 -0.394  -0.387  -0.385  -0.380  -0.371  -0.365  -0.358  -0.356
 -0.348  -0.340  -0.338  -0.333  -0.332  -0.328  -0.321  -0.315
 -0.300  -0.291  -0.287  -0.260  -0.254  -0.222

          Ground-State Mulliken Net Atomic Charges

     Atom                 Charge (a.u.)    Spin (a.u.)
  --------------------------------------------------------
      1 N                    -0.605564      -0.437689
      2 C                     0.301326       0.098865
      3 C                    -0.266662      -0.179137
      4 H                     0.309858       0.009608
      5 C                    -0.240371       0.129158
      6 H                     0.272455      -0.005861
      7 C                    -0.200401      -0.246396
      8 H                     0.269997       0.013214
      9 C                    -0.302091       0.147709
     10 H                     0.256494      -0.006978
     11 C                     0.191107      -0.225652
     12 C                     0.288150       0.093923
     13 C                    -0.252519      -0.180978
     14 H                     0.310566       0.009788
     15 C                    -0.235228       0.130853
     16 H                     0.273475      -0.005920
     17 C                    -0.199601      -0.252761
     18 H                     0.270001       0.013532
     19 C                    -0.301379       0.149989
     20 H                     0.256333      -0.007063
     21 C                     0.191808      -0.229253
     22 C                     0.113577       0.033142
     23 C                    -0.238053      -0.026047
     24 H                     0.286547       0.001186
     25 C                    -0.233136      -0.023821
     26 H                     0.257926       0.001148
     27 C                    -0.316783       0.010610
     28 H                     0.247589      -0.001151
     29 C                     0.232035       0.017363
     30 C                     0.060158      -0.016257
     31 C                    -0.510441       0.009261
     32 H                     0.239218      -0.001287
     33 H                     0.268281      -0.001447
     34 C                    -0.239123       0.037783
     35 C                    -0.609403      -0.021434
     36 H                     0.243744      -0.000265
     37 H                     0.243383      -0.000179
     38 H                     0.253432       0.000787
     39 C                    -0.548333      -0.014976
     40 H                     0.250794       0.000390
     41 H                     0.219864       0.013915
     42 C                     0.093033       0.173039
     43 C                    -0.333578      -0.098787
     44 H                     0.214286       0.003988
     45 C                    -0.008189       0.332226
     46 C                     0.001520       0.248710
     47 C                    -0.297860      -0.143978
     48 H                     0.245374       0.007134
     49 C                     0.106136       0.244887
     50 C                    -0.057952      -0.091621
     51 N                    -0.286244       0.203052
     52 C                    -0.044575      -0.068661
     53 N                    -0.277090       0.147120
     54 C                    -0.403387      -0.012632
     55 C                     0.021285       0.004936
     56 C                    -0.266499      -0.000432
     57 H                     0.238929       0.000464
     58 C                    -0.246809       0.001604
     59 H                     0.235441      -0.000079
     60 C                    -0.229971      -0.001821
     61 H                     0.235392       0.000129
     62 C                    -0.345257       0.001807
     63 H                     0.224146      -0.000071
     64 C                     0.154219      -0.003591
     65 C                     0.111043       0.012322
     66 C                    -0.331140      -0.010115
     67 H                     0.220227       0.000688
     68 C                    -0.241131       0.021674
     69 H                     0.232055      -0.001353
     70 C                    -0.235199      -0.012967
     71 H                     0.231984       0.000790
     72 C                    -0.309986       0.020793
     73 H                     0.236133      -0.001279
     74 C                     0.176101       0.006404
     75 C                    -0.606407      -0.022301
     76 H                     0.246965       0.000837
     77 H                     0.244279      -0.000205
     78 H                     0.243698      -0.000379
  --------------------------------------------------------
  Sum of atomic charges =    -0.000000

                    Cartesian Multipole Moments
 -----------------------------------------------------------------
    Charge (ESU x 10^10)
                -0.0000
    Dipole Moment (Debye)
         X     -38.2991      Y      14.8334      Z      18.9188
       Tot      45.2192
    Quadrupole Moments (Debye-Ang)
        XX    -564.9883     XY     147.8667     YY    -311.5906
        XZ     157.6567     YZ     -55.1676     ZZ    -308.1608

 Total job time:  20788.82s(wall), 56738.92s(cpu)
        *  Thank you very much for using Q-Chem.  Have a nice day.  *
