 Q-Chem 5.0, Q-Chem, Inc., Pleasanton, CA (2017)
 Q-Chem 5.0.1 for Intel X86 EM64T Linux

User input:
--------------------------------------------------------------
$rem
threads 8
jobtype	sp
method PBEh-3c
basis def2-mSVP
mem_static	1024
mem_total	8000
sym_ignore	true
unrestricted true
scf_convergence	9
solvent_method	pcm
$end

$molecule
read incoords_2.mol
$end

$solvent
dielectric	1.0001
$end

$pcm
theory iefpcm
$end
--------------------------------------------------------------

   17   -1855.5169161135      8.75E-10 Convergence criterion met
 Total energy in the final basis set = -1855.51691611
 Total job time:  1500.02s(wall), 4312.82s(cpu)
        *  Thank you very much for using Q-Chem.  Have a nice day.  *
 Q-Chem 5.0, Q-Chem, Inc., Pleasanton, CA (2017)
 Q-Chem 5.0.1 for Intel X86 EM64T Linux

User input:
--------------------------------------------------------------

$rem
threads 8
jobtype opt
method PBEh-3c
basis def2-mSVP
scf_guess	read
mem_static      1024
mem_total       8000
sym_ignore      true
unrestricted true
mom_start       1
scf_algorithm	diis
scf_max_cycles	250
solvent_method	pcm
geom_opt_tol_energy 25
geom_opt_tol_gradient 75
$end

$solvent
dielectric      1.0001
$end

$pcm
theory iefpcm
$end

$occupied
1 2 3 4 5 6 7 8 9 10 11 12 13 14 15 16 17 18 19 20 21 22 23 24 25 26 27 28 29 30 31 32 33 34 35 36 37 38 39 40 41 42 43 44 45 46 47 48 49 50 51 52 53 54 55 56 57 58 59 60 61 62 63 64 65 66 67 68 69 70 71 72 73 74 75 76 77 78 79 80 81 82 83 84 85 86 87 88 89 90 91 92 93 94 95 96 97 98 99 100 101 102 103 104 105 106 107 108 109 110 111 112 113 114 115 116 117 118 119 120 121 122 123 124 125 126 127 128 129 130 131 132 133 134 135 136 137 138 139 140 141 142 143 144 145 146 147 148 149 150 151 152 153 154 155 156 157 159
1 2 3 4 5 6 7 8 9 10 11 12 13 14 15 16 17 18 19 20 21 22 23 24 25 26 27 28 29 30 31 32 33 34 35 36 37 38 39 40 41 42 43 44 45 46 47 48 49 50 51 52 53 54 55 56 57 58 59 60 61 62 63 64 65 66 67 68 69 70 71 72 73 74 75 76 77 78 79 80 81 82 83 84 85 86 87 88 89 90 91 92 93 94 95 96 97 98 99 100 101 102 103 104 105 106 107 108 109 110 111 112 113 114 115 116 117 118 119 120 121 122 123 124 125 126 127 128 129 130 131 132 133 134 135 136 137 138 139 140 141 142 143 144 145 146 147 148 149 150 151 152 153 154 155 156 157 158
$end

$molecule
read incoords_2.mol
$end

--------------------------------------------------------------

   25   -1855.3906045318      9.90E-09 Convergence criterion met
 Total energy in the final basis set = -1855.39060453
   20   -1855.3909829232      7.21E-09 Convergence criterion met
 Total energy in the final basis set = -1855.39098292
   20   -1855.3910102807      6.81E-09 Convergence criterion met
 Total energy in the final basis set = -1855.39101028
   18   -1855.3910753233      9.88E-09 Convergence criterion met
 Total energy in the final basis set = -1855.39107532
   18   -1855.3910645701      8.96E-09 Convergence criterion met
 Total energy in the final basis set = -1855.39106457
   17   -1855.3910938125      8.64E-09 Convergence criterion met
 Total energy in the final basis set = -1855.39109381
   14   -1855.3910982211      9.18E-09 Convergence criterion met
 Total energy in the final basis set = -1855.39109822
   15   -1855.3910802732      6.58E-09 Convergence criterion met
 Total energy in the final basis set = -1855.39108027
   11   -1855.3911097146      9.28E-09 Convergence criterion met
 Total energy in the final basis set = -1855.39110971
   10   -1855.3910922479      8.17E-09 Convergence criterion met
 Total energy in the final basis set = -1855.39109225

             Standard Nuclear Orientation (Angstroms)
    I     Atom           X                Y                Z
 ----------------------------------------------------------------
    1      N       0.2285595772     0.2850330571     0.1210274440
    2      C       0.0295653458     0.6755213920     1.4333074817
    3      C       1.0849283944     1.2855045454     2.1365052790
    4      H       2.0560334428     1.3890846856     1.6768435157
    5      C       0.8877403377     1.7329648400     3.4199727647
    6      H       1.7028596127     2.2014414220     3.9530448823
    7      C      -0.3525237652     1.5680892374     4.0288981884
    8      H      -0.5176298128     1.9250316302     5.0361225766
    9      C      -1.3702064718     0.9161537377     3.3543633664
   10      H      -2.3152253302     0.7645102839     3.8586703240
   11      C      -1.2056184227     0.4399397665     2.0614646757
   12      C      -0.7104732154    -0.4342593374    -0.5906801698
   13      C      -0.4481699744    -0.7984549197    -1.9309678658
   14      H       0.4472150446    -0.4726799586    -2.4358055247
   15      C      -1.3269947995    -1.6007549741    -2.6147330830
   16      H      -1.0835753753    -1.9063719412    -3.6224109640
   17      C      -2.5059209993    -2.0138747843    -2.0035304500
   18      H      -3.2035457795    -2.6466760721    -2.5350172444
   19      C      -2.7984317566    -1.5968378908    -0.7151163222
   20      H      -3.7376019050    -1.9013224075    -0.2733270071
   21      C      -1.9245599177    -0.8070210194     0.0175272262
   22      C       1.4709247015     0.5758684118    -0.5187686148
   23      C       2.2514922692    -0.4911728685    -0.9116063866
   24      H       1.9218408688    -1.4895387078    -0.6555777695
   25      C       1.8401453301     1.8790715287    -0.8185253838
   26      H       1.2203215419     2.7219146583    -0.5410108806
   27      C       3.0105800950     2.0525905696    -1.5247473730
   28      H       3.3094482845     3.0579311050    -1.7922922096
   29      C       3.4089393288    -0.3259224571    -1.6682996311
   30      C       3.8063361513     0.9815986936    -1.9657713554
   31      C       5.0018927607     1.3135474262    -2.8044883165
   32      H       4.9872149551     2.3845960672    -3.0159636068
   33      H       5.9240867694     1.1182750117    -2.2504253924
   34      C      -2.3156280209    -0.3441050135     1.3996873647
   35      C      -2.6320220831    -1.5758966464     2.2718168633
   36      H      -3.4448520790    -2.1592484731     1.8417210307
   37      H      -2.9441685687    -1.2801622623     3.2723975831
   38      H      -1.7631919397    -2.2264493365     2.3658652389
   39      C       5.0248304819     0.5180014502    -4.1096489030
   40      H       5.5600810878     1.0916519014    -4.8680409121
   41      H       3.9944807308     0.4328043600    -4.4802223270
   42      C       5.7052150847    -0.8022463864    -3.9318127382
   43      C       6.7751030463    -1.0957925306    -4.7396641632
   44      H       7.0212384182    -0.4113136388    -5.5440964411
   45      C       7.5967430158    -2.2196361677    -4.5650343585
   46      C       7.3022625356    -3.0682454850    -3.4444519762
   47      C       6.2063216379    -2.7795639986    -2.6449158837
   48      H       5.9986772687    -3.4791098065    -1.8471873857
   49      C       5.3773943585    -1.6784886984    -2.8363643952
   50      C       8.6611937955    -2.4588733096    -5.4485666688
   51      N       9.5345573839    -2.6306279934    -6.1921298639
   52      C       8.0860279455    -4.2030279279    -3.1369833331
   53      N       8.7103071541    -5.1393917012    -2.8684930785
   54      C       4.0321390670    -1.6603306671    -2.1204549302
   55      C       4.0624817095    -2.5748553731    -0.9037209871
   56      C       4.7922009513    -2.4060796232     0.2560513638
   57      H       5.4538026639    -1.5561587153     0.3673598641
   58      C       4.6880413317    -3.3637452236     1.2560832598
   59      H       5.2662736749    -3.2573232630     2.1644013523
   60      C       3.8604043670    -4.4704189291     1.0932113658
   61      H       3.8001136713    -5.2132977529     1.8777555997
   62      C       3.1232515427    -4.6363238506    -0.0693536492
   63      H       2.4889071065    -5.5052364278    -0.1950098212
   64      C       3.2280150015    -3.6789269769    -1.0678171981
   65      C       2.5736462460    -3.5778851215    -2.3662760307
   66      C       1.6748796765    -4.4281564790    -2.9893715336
   67      H       1.3618932944    -5.3500150912    -2.5144787733
   68      C       1.1875377788    -4.0881169794    -4.2456419081
   69      H       0.5008209586    -4.7506168522    -4.7564018169
   70      C       1.6008081352    -2.9107121401    -4.8595046954
   71      H       1.2330369544    -2.6650096993    -5.8479279210
   72      C       2.5020806489    -2.0561480514    -4.2340707167
   73      H       2.8272631421    -1.1577739164    -4.7402415581
   74      C       2.9925639985    -2.3920256109    -2.9815453965
   75      C      -3.5690803815     0.5444893363     1.2730353317
   76      H      -3.3773942488     1.4134992556     0.6442550953
   77      H      -4.3942767768    -0.0136502628     0.8315020537
   78      H      -3.8999610533     0.8983593483     2.2489868237
 ----------------------------------------------------------------

    9   -1855.3911000322      9.25E-09 Convergence criterion met
 Total energy in the final basis set = -1855.39110003
 Final energy is   -1855.39110003217
 **  OPTIMIZATION CONVERGED  **

                    Orbital Energies (a.u.)
 --------------------------------------------------------------

 Alpha MOs
 -- Occupied --
-14.806 -14.567 -14.562 -10.577 -10.576 -10.542 -10.538 -10.537
-10.535 -10.520 -10.519 -10.518 -10.515 -10.515 -10.514 -10.513
-10.506 -10.495 -10.491 -10.490 -10.489 -10.489 -10.485 -10.481
-10.479 -10.454 -10.453 -10.453 -10.452 -10.451 -10.449 -10.449
-10.449 -10.448 -10.447 -10.446 -10.445 -10.444 -10.431 -10.417
-10.416 -10.416 -10.412 -10.412 -10.411 -10.410 -10.409  -1.181
 -1.041  -1.035  -1.013  -0.992  -0.981  -0.949  -0.948  -0.934
 -0.931  -0.931  -0.913  -0.911  -0.908  -0.888  -0.880  -0.876
 -0.859  -0.846  -0.837  -0.832  -0.820  -0.810  -0.806  -0.790
 -0.788  -0.768  -0.756  -0.744  -0.728  -0.720  -0.713  -0.693
 -0.689  -0.687  -0.677  -0.667  -0.664  -0.653  -0.645  -0.632
 -0.612  -0.606  -0.598  -0.597  -0.594  -0.587  -0.577  -0.571
 -0.566  -0.562  -0.558  -0.556  -0.552  -0.548  -0.545  -0.538
 -0.526  -0.520  -0.517  -0.514  -0.510  -0.506  -0.504  -0.496
 -0.494  -0.493  -0.488  -0.486  -0.482  -0.481  -0.478  -0.473
 -0.469  -0.462  -0.459  -0.457  -0.449  -0.445  -0.442  -0.436
 -0.435  -0.427  -0.423  -0.419  -0.412  -0.407  -0.403  -0.396
 -0.393  -0.386  -0.378  -0.364  -0.361  -0.355  -0.354  -0.352
 -0.351  -0.348  -0.336  -0.331  -0.323  -0.317  -0.314  -0.308
 -0.291  -0.287  -0.259  -0.253  -0.241  -0.089

 Beta MOs
 -- Occupied --
-14.817 -14.565 -14.558 -10.576 -10.575 -10.542 -10.540 -10.538
-10.537 -10.523 -10.522 -10.518 -10.517 -10.516 -10.514 -10.512
-10.504 -10.496 -10.491 -10.490 -10.490 -10.489 -10.486 -10.481
-10.480 -10.454 -10.453 -10.453 -10.451 -10.451 -10.449 -10.449
-10.449 -10.448 -10.447 -10.445 -10.444 -10.444 -10.431 -10.416
-10.415 -10.414 -10.412 -10.411 -10.411 -10.408 -10.407  -1.200
 -1.045  -1.038  -1.013  -0.993  -0.984  -0.949  -0.943  -0.934
 -0.932  -0.925  -0.914  -0.913  -0.905  -0.891  -0.881  -0.877
 -0.859  -0.847  -0.836  -0.834  -0.815  -0.809  -0.806  -0.795
 -0.789  -0.766  -0.756  -0.745  -0.730  -0.720  -0.713  -0.695
 -0.691  -0.688  -0.675  -0.667  -0.663  -0.652  -0.644  -0.631
 -0.617  -0.610  -0.608  -0.598  -0.597  -0.588  -0.578  -0.572
 -0.566  -0.562  -0.561  -0.558  -0.553  -0.549  -0.545  -0.537
 -0.532  -0.524  -0.520  -0.519  -0.510  -0.507  -0.504  -0.497
 -0.495  -0.494  -0.488  -0.487  -0.485  -0.482  -0.480  -0.474
 -0.471  -0.465  -0.460  -0.456  -0.453  -0.449  -0.445  -0.438
 -0.436  -0.428  -0.424  -0.417  -0.411  -0.406  -0.397  -0.394
 -0.391  -0.384  -0.376  -0.375  -0.365  -0.361  -0.356  -0.351
 -0.346  -0.335  -0.334  -0.330  -0.328  -0.314  -0.312  -0.308
 -0.305  -0.289  -0.285  -0.255  -0.244  -0.209

          Ground-State Mulliken Net Atomic Charges

     Atom                 Charge (a.u.)    Spin (a.u.)
  --------------------------------------------------------
      1 N                    -0.609615      -0.433557
      2 C                     0.291574       0.113093
      3 C                    -0.272257      -0.173593
      4 H                     0.308160       0.008991
      5 C                    -0.231003       0.125423
      6 H                     0.257117      -0.005874
      7 C                    -0.195446      -0.220856
      8 H                     0.252932       0.011984
      9 C                    -0.293447       0.136277
     10 H                     0.236984      -0.006565
     11 C                     0.187300      -0.209514
     12 C                     0.278715       0.094136
     13 C                    -0.257415      -0.183256
     14 H                     0.320561       0.009596
     15 C                    -0.218876       0.138872
     16 H                     0.271546      -0.006404
     17 C                    -0.192470      -0.251013
     18 H                     0.253204       0.013583
     19 C                    -0.294255       0.148699
     20 H                     0.234815      -0.007226
     21 C                     0.185148      -0.219425
     22 C                     0.164294       0.033725
     23 C                    -0.288387      -0.026744
     24 H                     0.295596       0.000122
     25 C                    -0.246965      -0.050022
     26 H                     0.242810       0.002533
     27 C                    -0.305737       0.044310
     28 H                     0.231612      -0.002945
     29 C                     0.250253       0.039633
     30 C                     0.057791      -0.053178
     31 C                    -0.502936       0.012848
     32 H                     0.225732      -0.001776
     33 H                     0.270876      -0.003469
     34 C                    -0.243545       0.035829
     35 C                    -0.600583      -0.018970
     36 H                     0.235140      -0.000259
     37 H                     0.234397      -0.000065
     38 H                     0.252931       0.000700
     39 C                    -0.544593      -0.015116
     40 H                     0.246478      -0.000217
     41 H                     0.209264       0.016593
     42 C                     0.096136       0.181323
     43 C                    -0.317497      -0.115226
     44 H                     0.203610       0.005416
     45 C                     0.012718       0.325189
     46 C                     0.026814       0.185669
     47 C                    -0.288252      -0.119157
     48 H                     0.239308       0.006181
     49 C                     0.099923       0.233048
     50 C                    -0.049067      -0.097617
     51 N                    -0.234026       0.179482
     52 C                    -0.037478      -0.057050
     53 N                    -0.226336       0.105929
     54 C                    -0.398393      -0.003272
     55 C                     0.011001       0.009682
     56 C                    -0.252797       0.000685
     57 H                     0.227857       0.000797
     58 C                    -0.233654       0.001545
     59 H                     0.220803      -0.000080
     60 C                    -0.215610      -0.000463
     61 H                     0.219494       0.000053
     62 C                    -0.336043       0.001735
     63 H                     0.205568      -0.000031
     64 C                     0.159257      -0.005096
     65 C                     0.119973       0.018955
     66 C                    -0.319966      -0.015773
     67 H                     0.201049       0.000976
     68 C                    -0.240730       0.047926
     69 H                     0.215048      -0.003112
     70 C                    -0.232461      -0.025319
     71 H                     0.218540       0.001481
     72 C                    -0.303866       0.042533
     73 H                     0.228413      -0.002765
     74 C                     0.162740       0.019571
     75 C                    -0.595485      -0.020317
     76 H                     0.244383       0.000780
     77 H                     0.236861      -0.000115
     78 H                     0.234465      -0.000468
  --------------------------------------------------------
  Sum of atomic charges =     0.000000

                    Cartesian Multipole Moments
 -----------------------------------------------------------------
    Charge (ESU x 10^10)
                 0.0000
    Dipole Moment (Debye)
         X     -30.3278      Y      12.5377      Z      16.4832
       Tot      36.7242
    Quadrupole Moments (Debye-Ang)
        XX    -498.7536     XY     124.0823     YY    -303.7017
        XZ     128.8965     YZ     -44.8798     ZZ    -309.4879

 Total job time:  17340.01s(wall), 47697.97s(cpu)
        *  Thank you very much for using Q-Chem.  Have a nice day.  *
