 Q-Chem 5.0, Q-Chem, Inc., Pleasanton, CA (2017)
 Q-Chem 5.0.1 for Intel X86 EM64T Linux

User input:
--------------------------------------------------------------
$rem
threads 8
jobtype opt
method PBEh-3c
basis def2-mSVP
mem_static      1024
mem_total       8000
sym_ignore      true
unrestricted true
scf_algorithm   diis
scf_max_cycles  250
solvent_method  pcm
geom_opt_tol_energy 25
geom_opt_tol_gradient 75
$end

$pcm
theory  iefpcm
$end

$solvent
dielectric      2.03
$end

$molecule
read uincoords_2.mol
$end

--------------------------------------------------------------

   26   -1855.4314870855      6.91E-09 Convergence criterion met
 Total energy in the final basis set = -1855.43148709
   17   -1855.4321088443      5.88E-09 Convergence criterion met
 Total energy in the final basis set = -1855.43210884
   16   -1855.4323764358      7.41E-09 Convergence criterion met
 Total energy in the final basis set = -1855.43237644
   13   -1855.4326263109      9.91E-09 Convergence criterion met
 Total energy in the final basis set = -1855.43262631
   16   -1855.4328777034      6.55E-09 Convergence criterion met
 Total energy in the final basis set = -1855.43287770
   16   -1855.4330679925      7.98E-09 Convergence criterion met
 Total energy in the final basis set = -1855.43306799
   16   -1855.4328273484      8.19E-09 Convergence criterion met
 Total energy in the final basis set = -1855.43282735
   14   -1855.4331363530      8.11E-09 Convergence criterion met
   14   -1855.4331828627      7.17E-09 Convergence criterion met
 Total energy in the final basis set = -1855.43318286
   15   -1855.4331493129      9.46E-09 Convergence criterion met
 Total energy in the final basis set = -1855.43314931
   13   -1855.4331377507      9.93E-09 Convergence criterion met
 Total energy in the final basis set = -1855.43313775
   13   -1855.4331583480      8.95E-09 Convergence criterion met
 Total energy in the final basis set = -1855.43315835
   13   -1855.4331747414      8.79E-09 Convergence criterion met
 Total energy in the final basis set = -1855.43317474
   13   -1855.4331809077      9.25E-09 Convergence criterion met
 Total energy in the final basis set = -1855.43318091

             Standard Nuclear Orientation (Angstroms)
    I     Atom           X                Y                Z
 ----------------------------------------------------------------
    1      N       0.1466974642     0.0071082771     0.2967742726
    2      C       0.0316635065    -0.5267079740     1.5828891896
    3      C       1.1501180701    -0.9631711760     2.2911835264
    4      H       2.1337910485    -0.9149851031     1.8445561066
    5      C       1.0081989460    -1.4470995378     3.5807222860
    6      H       1.8845212618    -1.7811049579     4.1208871970
    7      C      -0.2399815879    -1.4852257864     4.1788686314
    8      H      -0.3548686360    -1.8491669425     5.1910976146
    9      C      -1.3509756378    -1.0648297402     3.4617890252
   10      H      -2.3230354821    -1.1189734018     3.9329874581
   11      C      -1.2435464616    -0.6050193948     2.1571431597
   12      C      -0.7810519291     0.9679832597    -0.1228120202
   13      C      -0.4578269940     1.9483255212    -1.0611306906
   14      H       0.5201494570     1.9826776078    -1.5200336068
   15      C      -1.3901704180     2.9097043512    -1.4127930685
   16      H      -1.1147664884     3.6664985763    -2.1358657263
   17      C      -2.6470551781     2.9123382037    -0.8336701288
   18      H      -3.3744638888     3.6693534948    -1.0947977868
   19      C      -2.9742886444     1.9171981352     0.0756013546
   20      H      -3.9685748568     1.9117080525     0.5011968257
   21      C      -2.0701241341     0.9237281624     0.4261720186
   22      C       1.3658882846    -0.1318486129    -0.4108550095
   23      C       2.3534170101     0.8221857000    -0.2848365574
   24      H       2.1606252711     1.6434476528     0.3927651261
   25      C       1.5573603978    -1.2034826435    -1.2685069056
   26      H       0.7901964053    -1.9590991155    -1.3777385143
   27      C       2.7448113550    -1.2878494638    -1.9683991612
   28      H       2.9145264886    -2.1384700151    -2.6175084853
   29      C       3.5303594205     0.7829300021    -1.0348292630
   30      C       3.7368807175    -0.3093318354    -1.8774801117
   31      C       5.0101683677    -0.5225114986    -2.6401929712
   32      H       5.0217801870    -1.5461519155    -3.0171683565
   33      H       5.0594964827     0.1227670485    -3.5220294628
   34      C      -2.4375040948    -0.2788741529     1.2770661846
   35      C       6.2435483680    -0.2907352463    -1.7662401491
   36      H       7.0730111857    -0.8974737714    -2.1311082454
   37      H       6.0417562119    -0.6328556840    -0.7472281860
   38      C       6.6576726911     1.1491187034    -1.7811547398
   39      C       7.9561965111     1.4445510556    -2.1875683138
   40      H       8.6314802470     0.6323023395    -2.4235522343
   41      C       8.4097481068     2.7459350632    -2.3151501551
   42      C       7.5284943437     3.7942582796    -2.0348257617
   43      C       6.2378983658     3.5055896648    -1.6272782931
   44      H       5.5814193104     4.3359770048    -1.4069045754
   45      C       5.7772531167     2.1947424760    -1.4868638611
   46      C       9.7466005567     2.9931035229    -2.7419003534
   47      N      10.8293885596     3.1730773663    -3.0885186164
   48      C       7.9375861361     5.1537301820    -2.1648948909
   49      N       8.2550992499     6.2551684665    -2.2678192125
   50      C      -3.7116024451    -0.0514796908     2.0841737696
   51      H      -4.5591689609     0.1351047864     1.4249492146
   52      H      -3.9694521002    -0.9389717512     2.6617889360
   53      H      -3.6189000397     0.7904116029     2.7712017526
   54      C       4.3701522280     2.0567639269    -0.9042635899
   55      C       3.4662629260     3.1771561461    -1.4130830928
   56      C       2.9532088187     3.3464537827    -2.6594290776
   57      H       3.2025568433     2.6632546732    -3.4628552481
   58      C       2.0656773093     4.4195416125    -2.8969996648
   59      H       1.6551695313     4.5701702666    -3.8854834797
   60      C       1.7067540902     5.3031225463    -1.8434966202
   61      H       1.0159075910     6.1088967293    -2.0553988407
   62      C       2.2017747225     5.1571209028    -0.5844693276
   63      H       1.9097882220     5.8291413423     0.2109499159
   64      C       3.1147010380     4.0703542491    -0.3185315227
   65      C       3.7262250506     3.6540846784     0.8283544635
   66      C       3.6838710812     4.1597810407     2.1806626372
   67      H       3.1390293007     5.0665987197     2.4056847630
   68      C       4.3288662298     3.4670531749     3.1560941146
   69      H       4.2996075369     3.8283899446     4.1757628373
   70      C       5.0455074609     2.2692069927     2.8802295933
   71      H       5.5395638447     1.7455477436     3.6859882384
   72      C       5.1093392457     1.7608729629     1.5637322678
   73      H       5.6444253207     0.8406203307     1.3614820799
   74      C       4.4810143179     2.4332041624     0.5678776104
   75      C      -2.6861290380    -1.4734577257     0.3308210433
   76      H      -1.8131494005    -1.7001026499    -0.2804039601
   77      H      -3.5166722472    -1.2543302697    -0.3427925534
   78      H      -2.9361086950    -2.3674002724     0.9050316120
 ----------------------------------------------------------------

   13   -1855.4331833349      9.41E-09 Convergence criterion met
 Total energy in the final basis set = -1855.43318333
 Final energy is   -1855.43318333494
 **  OPTIMIZATION CONVERGED  **

                    Orbital Energies (a.u.)
 --------------------------------------------------------------

 Alpha MOs
 -- Occupied --
-14.677 -14.661 -14.659 -10.521 -10.520 -10.506 -10.506 -10.504
-10.503 -10.496 -10.493 -10.490 -10.490 -10.490 -10.489 -10.481
-10.479 -10.479 -10.474 -10.474 -10.473 -10.468 -10.466 -10.466
-10.466 -10.464 -10.463 -10.461 -10.460 -10.460 -10.460 -10.459
-10.459 -10.459 -10.458 -10.451 -10.451 -10.444 -10.444 -10.443
-10.442 -10.442 -10.439 -10.437 -10.436 -10.427 -10.425  -1.090
 -1.043  -1.030  -1.025  -1.003  -0.984  -0.960  -0.959  -0.957
 -0.936  -0.929  -0.910  -0.897  -0.887  -0.884  -0.857  -0.855
 -0.848  -0.843  -0.834  -0.818  -0.816  -0.807  -0.793  -0.771
 -0.769  -0.742  -0.737  -0.723  -0.712  -0.708  -0.702  -0.688
 -0.675  -0.674  -0.671  -0.664  -0.664  -0.642  -0.618  -0.611
 -0.611  -0.604  -0.595  -0.581  -0.578  -0.570  -0.563  -0.559
 -0.539  -0.538  -0.536  -0.531  -0.527  -0.522  -0.520  -0.517
 -0.512  -0.504  -0.503  -0.500  -0.499  -0.497  -0.496  -0.491
 -0.490  -0.488  -0.482  -0.481  -0.471  -0.465  -0.460  -0.452
 -0.445  -0.444  -0.443  -0.442  -0.439  -0.436  -0.434  -0.430
 -0.428  -0.426  -0.424  -0.422  -0.418  -0.417  -0.414  -0.409
 -0.406  -0.402  -0.402  -0.400  -0.395  -0.393  -0.389  -0.378
 -0.372  -0.367  -0.361  -0.345  -0.325  -0.321  -0.310  -0.303
 -0.300  -0.292  -0.288  -0.281  -0.278  -0.231  -0.157

 Beta MOs
 -- Occupied --
-14.677 -14.661 -14.659 -10.521 -10.520 -10.506 -10.506 -10.504
-10.502 -10.496 -10.493 -10.490 -10.490 -10.490 -10.489 -10.480
-10.474 -10.473 -10.473 -10.471 -10.470 -10.468 -10.466 -10.463
-10.462 -10.462 -10.462 -10.461 -10.460 -10.459 -10.459 -10.458
-10.458 -10.457 -10.457 -10.451 -10.451 -10.444 -10.444 -10.443
-10.442 -10.442 -10.439 -10.437 -10.436 -10.427 -10.425  -1.090
 -1.042  -1.025  -1.023  -1.000  -0.982  -0.958  -0.957  -0.950
 -0.934  -0.925  -0.910  -0.892  -0.886  -0.878  -0.852  -0.852
 -0.848  -0.842  -0.834  -0.818  -0.807  -0.795  -0.792  -0.771
 -0.769  -0.741  -0.724  -0.723  -0.712  -0.706  -0.702  -0.687
 -0.671  -0.670  -0.668  -0.663  -0.658  -0.641  -0.618  -0.611
 -0.610  -0.603  -0.595  -0.580  -0.574  -0.567  -0.562  -0.555
 -0.538  -0.535  -0.534  -0.530  -0.526  -0.522  -0.520  -0.514
 -0.509  -0.504  -0.502  -0.498  -0.497  -0.495  -0.494  -0.491
 -0.488  -0.486  -0.481  -0.478  -0.470  -0.464  -0.454  -0.445
 -0.443  -0.441  -0.440  -0.436  -0.434  -0.432  -0.431  -0.427
 -0.426  -0.424  -0.420  -0.419  -0.416  -0.416  -0.409  -0.406
 -0.402  -0.401  -0.401  -0.398  -0.395  -0.390  -0.387  -0.378
 -0.372  -0.361  -0.335  -0.322  -0.315  -0.309  -0.302  -0.300
 -0.295  -0.288  -0.286  -0.281  -0.231

          Ground-State Mulliken Net Atomic Charges

     Atom                 Charge (a.u.)    Spin (a.u.)
  --------------------------------------------------------
      1 N                    -0.706527       0.000071
      2 C                     0.312118      -0.000030
      3 C                    -0.293410       0.000034
      4 H                     0.249454       0.000084
      5 C                    -0.248688      -0.000002
      6 H                     0.226878      -0.000001
      7 C                    -0.232195       0.000023
      8 H                     0.223908       0.000000
      9 C                    -0.336839       0.000008
     10 H                     0.224717      -0.000001
     11 C                     0.159617       0.000009
     12 C                     0.309184       0.000138
     13 C                    -0.299354      -0.000441
     14 H                     0.268684      -0.000414
     15 C                    -0.244867       0.000593
     16 H                     0.224355       0.000199
     17 C                    -0.232974      -0.000122
     18 H                     0.222323       0.000005
     19 C                    -0.335328       0.000142
     20 H                     0.224596       0.000003
     21 C                     0.152846      -0.000117
     22 C                     0.215756      -0.001932
     23 C                    -0.285356       0.000129
     24 H                     0.288945      -0.000624
     25 C                    -0.244673       0.006742
     26 H                     0.244070      -0.000377
     27 C                    -0.314008       0.001640
     28 H                     0.232606       0.000023
     29 C                     0.217803       0.023773
     30 C                     0.062643       0.003504
     31 C                    -0.526895       0.000112
     32 H                     0.257562      -0.000037
     33 H                     0.255702       0.000089
     34 C                    -0.221960       0.000001
     35 C                    -0.542296      -0.000089
     36 H                     0.261284       0.000010
     37 H                     0.263346       0.000194
     38 C                     0.097794       0.005979
     39 C                    -0.324560      -0.001979
     40 H                     0.262515       0.000187
     41 C                     0.074751       0.008348
     42 C                     0.082304      -0.003669
     43 C                    -0.293282       0.005558
     44 H                     0.288134      -0.001859
     45 C                     0.228517       0.018983
     46 C                     0.004025      -0.002557
     47 N                    -0.181455       0.003526
     48 C                     0.001681       0.000815
     49 N                    -0.181452      -0.000950
     50 C                    -0.670847      -0.000000
     51 H                     0.232913       0.000000
     52 H                     0.232800      -0.000000
     53 H                     0.240457      -0.000000
     54 C                    -0.414068      -0.076869
     55 C                     0.076607       0.375906
     56 C                    -0.278011      -0.241268
     57 H                     0.234530       0.010383
     58 C                    -0.261593       0.609190
     59 H                     0.243968      -0.036099
     60 C                    -0.211075      -0.205425
     61 H                     0.241939       0.008110
     62 C                    -0.315400       0.328614
     63 H                     0.229386      -0.021241
     64 C                     0.122887       0.157382
     65 C                     0.111127       0.187631
     66 C                    -0.314458       0.320719
     67 H                     0.229449      -0.020948
     68 C                    -0.210800      -0.198680
     69 H                     0.242184       0.007648
     70 C                    -0.250676       0.624338
     71 H                     0.242438      -0.036971
     72 C                    -0.282821      -0.242212
     73 H                     0.229468       0.010549
     74 C                     0.129805       0.373528
     75 C                    -0.604637      -0.000004
     76 H                     0.235171       0.000000
     77 H                     0.224127       0.000000
     78 H                     0.223131      -0.000001
  --------------------------------------------------------
  Sum of atomic charges =    -0.000000

                    Cartesian Multipole Moments
 -----------------------------------------------------------------
    Charge (ESU x 10^10)
                -0.0000
    Dipole Moment (Debye)
         X      -6.1656      Y      -5.8634      Z       1.6603
       Tot       8.6690
    Quadrupole Moments (Debye-Ang)
        XX    -360.8581     XY     -76.2605     YY    -296.3361
        XZ      29.5634     YZ      20.3166     ZZ    -260.7874

 Total job time:  22998.95s(wall), 65057.73s(cpu)
        *  Thank you very much for using Q-Chem.  Have a nice day.  *
