 Q-Chem 5.0, Q-Chem, Inc., Pleasanton, CA (2017)
 Q-Chem 5.0.1 for Intel X86 EM64T Linux

User input:
--------------------------------------------------------------
$rem
threads 8
jobtype opt
method PBEh-3c
basis def2-mSVP
mem_static      1024
mem_total       8000
sym_ignore      true
unrestricted true
scf_algorithm	diis
scf_max_cycles	250
solvent_method  pcm
geom_opt_tol_energy 25
geom_opt_tol_gradient 75
$end

$pcm
theory  iefpcm
$end

$solvent
dielectric      2.38
$end

$molecule
read uincoords_2.mol
$end
--------------------------------------------------------------

   26   -1855.4339137497      7.40E-09 Convergence criterion met
 Total energy in the final basis set = -1855.43391375
   17   -1855.4345654220      5.91E-09 Convergence criterion met
 Total energy in the final basis set = -1855.43456542
   16   -1855.4348542969      7.76E-09 Convergence criterion met
 Total energy in the final basis set = -1855.43485430
   14   -1855.4351133060      6.07E-09 Convergence criterion met
 Total energy in the final basis set = -1855.43511331
   16   -1855.4353662079      6.98E-09 Convergence criterion met
 Total energy in the final basis set = -1855.43536621
   16   -1855.4355456044      8.45E-09 Convergence criterion met
 Total energy in the final basis set = -1855.43554560
   16   -1855.4352671463      8.57E-09 Convergence criterion met
 Total energy in the final basis set = -1855.43526715
   15   -1855.4356070311      8.30E-09 Convergence criterion met
   14   -1855.4356598053      6.32E-09 Convergence criterion met
 Total energy in the final basis set = -1855.43565981
   16   -1855.4356230606      5.98E-09 Convergence criterion met
 Total energy in the final basis set = -1855.43562306
   14   -1855.4356098170      7.03E-09 Convergence criterion met
 Total energy in the final basis set = -1855.43560982
   14   -1855.4356311274      5.87E-09 Convergence criterion met
 Total energy in the final basis set = -1855.43563113
   14   -1855.4356458323      5.89E-09 Convergence criterion met
 Total energy in the final basis set = -1855.43564583
   14   -1855.4356514353      6.34E-09 Convergence criterion met
 Total energy in the final basis set = -1855.43565144

             Standard Nuclear Orientation (Angstroms)
    I     Atom           X                Y                Z
 ----------------------------------------------------------------
    1      N       0.1462289504     0.0096654566     0.2972627808
    2      C       0.0306590691    -0.5229429014     1.5836657806
    3      C       1.1492369939    -0.9564597456     2.2938121516
    4      H       2.1334000309    -0.9069748008     1.8483287028
    5      C       1.0068083036    -1.4389843165     3.5839338116
    6      H       1.8832239026    -1.7705500721     4.1255004849
    7      C      -0.2420872489    -1.4786507226     4.1808237273
    8      H      -0.3574118687    -1.8414378591     5.1934501171
    9      C      -1.3531994045    -1.0612909424     3.4619077183
   10      H      -2.3257139756    -1.1168128998     3.9320470687
   11      C      -1.2451348443    -0.6030287445     2.1566642643
   12      C      -0.7830366374     0.9677333143    -0.1247102356
   13      C      -0.4605022782     1.9478748096    -1.0636742643
   14      H       0.5183664220     1.9840623817    -1.5206220753
   15      C      -1.3945839169     2.9066898505    -1.4181200645
   16      H      -1.1199746036     3.6632845012    -2.1417547883
   17      C      -2.6525376651     2.9070773372    -0.8409715069
   18      H      -3.3813230694     3.6620426637    -1.1042980074
   19      C      -2.9789024454     1.9123470197     0.0692429788
   20      H      -3.9738850273     1.9050963592     0.4932458009
   21      C      -2.0728923096     0.9213665551     0.4225046800
   22      C       1.3655562024    -0.1298894435    -0.4103687885
   23      C       2.3530126542     0.8242837364    -0.2851510860
   24      H       2.1602661651     1.6461571616     0.3917663852
   25      C       1.5568520892    -1.2024425000    -1.2670169894
   26      H       0.7897167795    -1.9582213761    -1.3758005616
   27      C       2.7444970270    -1.2876372289    -1.9666067707
   28      H       2.9142503485    -2.1389013084    -2.6148615218
   29      C       3.5302261055     0.7839188588    -1.0347582035
   30      C       3.7368934449    -0.3092392609    -1.8762201140
   31      C       5.0102303835    -0.5234641499    -2.6384676414
   32      H       5.0219940883    -1.5476267801    -3.0138846176
   33      H       5.0591732850     0.1205829687    -3.5212074677
   34      C      -2.4388411023    -0.2807845232     1.2747084937
   35      C       6.2437415186    -0.2905414326    -1.7649852696
   36      H       7.0730158415    -0.8977455082    -2.1292930142
   37      H       6.0425947231    -0.6307450397    -0.7452222983
   38      C       6.6576726733     1.1492106978    -1.7819643066
   39      C       7.9559349510     1.4441534362    -2.1900664424
   40      H       8.6307477529     0.6315914669    -2.4263075178
   41      C       8.4090227578     2.7455039079    -2.3187108706
   42      C       7.5281024866     3.7940922449    -2.0378592446
   43      C       6.2378932532     3.5060154636    -1.6289316417
   44      H       5.5818408935     4.3366868161    -1.4083721331
   45      C       5.7774957779     2.1950620742    -1.4875469536
   46      C       9.7451900919     2.9934395920    -2.7469796669
   47      N      10.8272506898     3.1758733940    -3.0947008605
   48      C       7.9378337978     5.1531938596    -2.1690711415
   49      N       8.2571988996     6.2540152523    -2.2733047020
   50      C      -3.7144856768    -0.0549444819     2.0798555831
   51      H      -4.5615458845     0.1285217325     1.4191038659
   52      H      -3.9708373922    -0.9420204625     2.6587718742
   53      H      -3.6247673065     0.7884190266     2.7655012231
   54      C       4.3708378258     2.0571536547    -0.9037911516
   55      C       3.4672916973     3.1789596296    -1.4102027473
   56      C       2.9526343551     3.3499556913    -2.6557319302
   57      H       3.2002136922     2.6673786035    -3.4602656367
   58      C       2.0658668514     4.4242705777    -2.8908969433
   59      H       1.6538062855     4.5761825521    -3.8785638442
   60      C       1.7094152228     5.3072806574    -1.8359237544
   61      H       1.0189851586     6.1139023807    -2.0460810538
   62      C       2.2062465617     5.1596192235    -0.5776957200
   63      H       1.9163899793     5.8312368301     0.2189004950
   64      C       3.1183799922     4.0715194046    -0.3142677091
   65      C       3.7309736291     3.6533366752     0.8314002048
   66      C       3.6908383455     4.1577446160     2.1843373629
   67      H       3.1479376581     5.0654332090     2.4107101048
   68      C       4.3353447339     3.4625217534     3.1584562961
   69      H       4.3077436839     3.8227173567     4.1786113626
   70      C       5.0493037289     2.2633769455     2.8805846206
   71      H       5.5428015749     1.7376583885     3.6853851026
   72      C       5.1111996953     1.7564561970     1.5633499828
   73      H       5.6439386675     0.8351444868     1.3596059564
   74      C       4.4835882416     2.4315423140     0.5687783931
   75      C      -2.6837475454    -1.4773476873     0.3299507872
   76      H      -1.8096125683    -1.7034677328    -0.2798979446
   77      H      -3.5140768615    -1.2608012445    -0.3447732456
   78      H      -2.9329778491    -2.3707497634     0.9053567213
 ----------------------------------------------------------------

   14   -1855.4356535725      6.40E-09 Convergence criterion met
 Total energy in the final basis set = -1855.43565357
 Final energy is   -1855.43565357253
 **  OPTIMIZATION CONVERGED  **

                    Orbital Energies (a.u.)
 --------------------------------------------------------------

 Alpha MOs
 -- Occupied --
-14.677 -14.662 -14.660 -10.521 -10.520 -10.508 -10.506 -10.505
-10.502 -10.496 -10.493 -10.490 -10.490 -10.489 -10.489 -10.480
-10.478 -10.478 -10.473 -10.473 -10.472 -10.468 -10.465 -10.465
-10.464 -10.463 -10.462 -10.459 -10.459 -10.459 -10.459 -10.458
-10.458 -10.458 -10.457 -10.451 -10.451 -10.444 -10.444 -10.443
-10.442 -10.442 -10.440 -10.437 -10.436 -10.427 -10.424  -1.090
 -1.043  -1.030  -1.026  -1.003  -0.984  -0.959  -0.959  -0.957
 -0.936  -0.928  -0.910  -0.897  -0.887  -0.884  -0.856  -0.854
 -0.848  -0.842  -0.834  -0.819  -0.815  -0.807  -0.793  -0.771
 -0.769  -0.742  -0.736  -0.723  -0.711  -0.708  -0.702  -0.688
 -0.674  -0.673  -0.671  -0.664  -0.663  -0.642  -0.618  -0.611
 -0.611  -0.603  -0.595  -0.581  -0.577  -0.569  -0.562  -0.558
 -0.538  -0.538  -0.535  -0.531  -0.527  -0.522  -0.520  -0.516
 -0.511  -0.504  -0.503  -0.500  -0.498  -0.496  -0.496  -0.491
 -0.489  -0.488  -0.481  -0.480  -0.471  -0.465  -0.460  -0.452
 -0.446  -0.445  -0.443  -0.442  -0.439  -0.436  -0.434  -0.430
 -0.427  -0.426  -0.424  -0.422  -0.417  -0.416  -0.414  -0.409
 -0.406  -0.402  -0.402  -0.401  -0.395  -0.392  -0.389  -0.378
 -0.372  -0.366  -0.361  -0.345  -0.325  -0.321  -0.309  -0.302
 -0.300  -0.292  -0.288  -0.281  -0.277  -0.231  -0.156

 Beta MOs
 -- Occupied --
-14.677 -14.662 -14.660 -10.521 -10.520 -10.508 -10.506 -10.506
-10.502 -10.496 -10.493 -10.490 -10.490 -10.489 -10.489 -10.480
-10.473 -10.472 -10.472 -10.470 -10.470 -10.468 -10.464 -10.462
-10.461 -10.461 -10.461 -10.459 -10.459 -10.458 -10.458 -10.457
-10.457 -10.456 -10.456 -10.451 -10.451 -10.444 -10.444 -10.443
-10.442 -10.442 -10.440 -10.437 -10.436 -10.427 -10.424  -1.090
 -1.042  -1.026  -1.023  -1.000  -0.982  -0.958  -0.957  -0.949
 -0.934  -0.924  -0.910  -0.891  -0.885  -0.878  -0.852  -0.851
 -0.848  -0.841  -0.834  -0.819  -0.806  -0.794  -0.792  -0.771
 -0.768  -0.741  -0.723  -0.722  -0.711  -0.706  -0.701  -0.687
 -0.671  -0.670  -0.667  -0.663  -0.657  -0.640  -0.618  -0.611
 -0.610  -0.602  -0.594  -0.580  -0.573  -0.566  -0.561  -0.555
 -0.538  -0.535  -0.533  -0.530  -0.525  -0.521  -0.520  -0.513
 -0.508  -0.503  -0.502  -0.498  -0.497  -0.495  -0.493  -0.491
 -0.488  -0.485  -0.480  -0.478  -0.469  -0.464  -0.454  -0.446
 -0.444  -0.441  -0.440  -0.436  -0.433  -0.431  -0.431  -0.427
 -0.425  -0.424  -0.420  -0.418  -0.416  -0.416  -0.409  -0.406
 -0.402  -0.401  -0.401  -0.398  -0.394  -0.389  -0.386  -0.378
 -0.372  -0.361  -0.334  -0.321  -0.315  -0.308  -0.302  -0.299
 -0.295  -0.288  -0.285  -0.281  -0.231

          Ground-State Mulliken Net Atomic Charges

     Atom                 Charge (a.u.)    Spin (a.u.)
  --------------------------------------------------------
      1 N                    -0.706026       0.000067
      2 C                     0.311820      -0.000029
      3 C                    -0.295440       0.000034
      4 H                     0.251216       0.000083
      5 C                    -0.251119      -0.000001
      6 H                     0.229459      -0.000001
      7 C                    -0.235034       0.000021
      8 H                     0.226250       0.000000
      9 C                    -0.338557       0.000008
     10 H                     0.227145      -0.000001
     11 C                     0.157720       0.000007
     12 C                     0.308786       0.000132
     13 C                    -0.300869      -0.000430
     14 H                     0.269729      -0.000418
     15 C                    -0.247438       0.000586
     16 H                     0.226796       0.000205
     17 C                    -0.235759      -0.000120
     18 H                     0.224751       0.000005
     19 C                    -0.337069       0.000136
     20 H                     0.227037       0.000003
     21 C                     0.151147      -0.000115
     22 C                     0.215033      -0.001915
     23 C                    -0.285770       0.000029
     24 H                     0.289479      -0.000613
     25 C                    -0.246678       0.006740
     26 H                     0.246164      -0.000377
     27 C                    -0.315967       0.001640
     28 H                     0.235286       0.000023
     29 C                     0.217850       0.023814
     30 C                     0.062135       0.003486
     31 C                    -0.527786       0.000118
     32 H                     0.259278      -0.000038
     33 H                     0.256713       0.000089
     34 C                    -0.220961       0.000002
     35 C                    -0.543492      -0.000091
     36 H                     0.263327       0.000010
     37 H                     0.264814       0.000196
     38 C                     0.097892       0.006019
     39 C                    -0.324823      -0.001973
     40 H                     0.265593       0.000185
     41 C                     0.074007       0.008403
     42 C                     0.081700      -0.003713
     43 C                    -0.293798       0.005644
     44 H                     0.289619      -0.001869
     45 C                     0.228484       0.018999
     46 C                     0.006165      -0.002557
     47 N                    -0.186446       0.003542
     48 C                     0.003732       0.000825
     49 N                    -0.186467      -0.000966
     50 C                    -0.672012      -0.000000
     51 H                     0.233979       0.000000
     52 H                     0.233900      -0.000000
     53 H                     0.240622      -0.000000
     54 C                    -0.413067      -0.076886
     55 C                     0.075644       0.376072
     56 C                    -0.279583      -0.241250
     57 H                     0.236862       0.010366
     58 C                    -0.263285       0.609006
     59 H                     0.246009      -0.036033
     60 C                    -0.213061      -0.205074
     61 H                     0.244041       0.008079
     62 C                    -0.317757       0.328107
     63 H                     0.231990      -0.021175
     64 C                     0.122653       0.157296
     65 C                     0.110370       0.187783
     66 C                    -0.316460       0.320401
     67 H                     0.232049      -0.020889
     68 C                    -0.213129      -0.198400
     69 H                     0.244292       0.007619
     70 C                    -0.252871       0.624152
     71 H                     0.244614      -0.036906
     72 C                    -0.284771      -0.242083
     73 H                     0.232489       0.010522
     74 C                     0.128931       0.373473
     75 C                    -0.606457      -0.000004
     76 H                     0.235797       0.000000
     77 H                     0.224750       0.000000
     78 H                     0.223831      -0.000001
  --------------------------------------------------------
  Sum of atomic charges =    -0.000000

                    Cartesian Multipole Moments
 -----------------------------------------------------------------
    Charge (ESU x 10^10)
                -0.0000
    Dipole Moment (Debye)
         X      -6.2503      Y      -6.0315      Z       1.6711
       Tot       8.8452
    Quadrupole Moments (Debye-Ang)
        XX    -362.1215     XY     -77.8353     YY    -296.9701
        XZ      30.0422     YZ      20.7368     ZZ    -260.6701

 Total job time:  28076.25s(wall), 74732.12s(cpu)
        *  Thank you very much for using Q-Chem.  Have a nice day.  *
