 Q-Chem 5.0, Q-Chem, Inc., Pleasanton, CA (2017)
 Q-Chem 5.0.1 for Intel X86 EM64T Linux

User input:
--------------------------------------------------------------
$rem
threads 8
jobtype sp
method PBEh-3c
basis def2-mSVP
mem_static      1024
mem_total       8000
sym_ignore      true
unrestricted true
scf_algorithm	diis
scf_max_cycles	250
solvent_method  pcm
$end

$pcm
theory  iefpcm
$end

$solvent
dielectric      1.0001
$end

$molecule
read uincoords_2.mol
$end

--------------------------------------------------------------

   11   -1855.4193125063      5.22E-06 Convergence criterion met
 Total energy in the final basis set = -1855.41931251
 Total job time:  627.08s(wall), 1848.33s(cpu)
        *  Thank you very much for using Q-Chem.  Have a nice day.  *
 Q-Chem 5.0, Q-Chem, Inc., Pleasanton, CA (2017)
 Q-Chem 5.0.1 for Intel X86 EM64T Linux

User input:
--------------------------------------------------------------

$rem
threads 8
jobtype opt
method PBEh-3c
basis def2-mSVP
mem_static      1024
mem_total       8000
sym_ignore      true
unrestricted true
scf_algorithm   diis
scf_max_cycles  250
solvent_method  pcm
geom_opt_tol_energy 25
geom_opt_tol_gradient 75
scf_guess	read
mom_start	1
$end

$pcm
theory  iefpcm
$end

$solvent
dielectric      1.0001
$end

$molecule
read uincoords_2.mol
$end

--------------------------------------------------------------

   16   -1855.4188308516      7.47E-09 Convergence criterion met
 Total energy in the final basis set = -1855.41883085
   16   -1855.4193766963      9.55E-09 Convergence criterion met
 Total energy in the final basis set = -1855.41937670
   16   -1855.4195338351      6.82E-09 Convergence criterion met
 Total energy in the final basis set = -1855.41953384
   13   -1855.4197275671      6.18E-09 Convergence criterion met
 Total energy in the final basis set = -1855.41972757
   16   -1855.4199716167      5.67E-09 Convergence criterion met
 Total energy in the final basis set = -1855.41997162
   16   -1855.4201605944      8.41E-09 Convergence criterion met
 Total energy in the final basis set = -1855.42016059
   16   -1855.4200794725      8.12E-09 Convergence criterion met
   16   -1855.4200414133      5.40E-09 Convergence criterion met
 Total energy in the final basis set = -1855.42004141
   11   -1855.4201139352      7.89E-09 Convergence criterion met
 Total energy in the final basis set = -1855.42011394
   12   -1855.4201069547      7.64E-09 Convergence criterion met
 Total energy in the final basis set = -1855.42010695
   12   -1855.4200964743      7.44E-09 Convergence criterion met
 Total energy in the final basis set = -1855.42009647
   10   -1855.4200871816      8.15E-09 Convergence criterion met
 Total energy in the final basis set = -1855.42008718
    8   -1855.4200834282      9.42E-09 Convergence criterion met
 Total energy in the final basis set = -1855.42008343

             Standard Nuclear Orientation (Angstroms)
    I     Atom           X                Y                Z
 ----------------------------------------------------------------
    1      N       0.1769490399    -0.0122973365     0.3587021794
    2      C       0.0791918026    -0.6344204787     1.6064024492
    3      C       1.1998602790    -1.1606331363     2.2452554157
    4      H       2.1702813984    -1.1160752969     1.7704225045
    5      C       1.0767653045    -1.7331714401     3.4995651314
    6      H       1.9543590950    -2.1384234912     3.9859204867
    7      C      -0.1537435258    -1.7709933697     4.1317261959
    8      H      -0.2531193619    -2.2051234824     5.1173924320
    9      C      -1.2680316445    -1.2614249571     3.4820049752
   10      H      -2.2275316756    -1.3168519138     3.9780156824
   11      C      -1.1806543276    -0.7112878919     2.2116531029
   12      C      -0.7247677367     1.0129286025     0.0418724443
   13      C      -0.3940177331     2.0502846968    -0.8293243119
   14      H       0.5668431724     2.0815503775    -1.3230567242
   15      C      -1.2983404243     3.0697604780    -1.0728721124
   16      H      -1.0154001178     3.8681421078    -1.7460868586
   17      C      -2.5340903370     3.0739757364    -0.4512846985
   18      H      -3.2385157983     3.8758664055    -0.6267100571
   19      C      -2.8717369953     2.0224483510     0.3870771163
   20      H      -3.8511476976     2.0182335955     0.8451656960
   21      C      -1.9975782699     0.9721308632     0.6273734640
   22      C       1.3716609187    -0.1350568961    -0.3902330278
   23      C       2.3854091138     0.7898846282    -0.2342126392
   24      H       2.2318881176     1.5621342429     0.5064277510
   25      C       1.5110807031    -1.1500424837    -1.3209208718
   26      H       0.7248938269    -1.8821749023    -1.4507774813
   27      C       2.6698414371    -1.2069726995    -2.0718951451
   28      H       2.7997875233    -2.0158105184    -2.7807583835
   29      C       3.5246825960     0.7896132399    -1.0387309948
   30      C       3.6742215484    -0.2467916928    -1.9633354653
   31      C       4.9099287942    -0.4154205763    -2.7955159500
   32      H       4.8748206026    -1.3939456748    -3.2768876523
   33      H       4.9513875998     0.3156047764    -3.6091913969
   34      C      -2.3845248092    -0.2801291495     1.3937951797
   35      C       6.1766109636    -0.3131104133    -1.9461262407
   36      H       6.9745041620    -0.9014073469    -2.4015599425
   37      H       5.9919856659    -0.7604656883    -0.9654297689
   38      C       6.6482683266     1.1034344168    -1.8105916113
   39      C       7.9731235686     1.3765639235    -2.1462119867
   40      H       8.6194024389     0.5598386854    -2.4410061031
   41      C       8.4920255033     2.6583742732    -2.1302951817
   42      C       7.6506247246     3.7175329823    -1.7735310941
   43      C       6.3373108039     3.4501191736    -1.4339851920
   44      H       5.7086776375     4.2838545594    -1.1508511666
   45      C       5.8110918985     2.1559877861    -1.4359093739
   46      C       9.8545860372     2.8749660327    -2.4876746153
   47      N      10.9577448178     3.0233668274    -2.7801621641
   48      C       8.1233818668     5.0624636467    -1.7539539314
   49      N       8.4878719519     6.1537668598    -1.7338821281
   50      C      -3.6276822553    -0.0773784633     2.2534154252
   51      H      -4.4847450252     0.1963306986     1.6386652778
   52      H      -3.9045923080    -1.0019444038     2.7594953990
   53      H      -3.4848678829     0.6978608801     3.0068962999
   54      C       4.3696282176     2.0639922290    -0.9355946100
   55      C       3.5041975755     3.1347191144    -1.5967216355
   56      C       3.1403114246     3.2432337183    -2.8998945387
   57      H       3.5113876973     2.5469194198    -3.6425296993
   58      C       2.2496528362     4.2711617767    -3.2835866426
   59      H       1.9557832490     4.3715065436    -4.3185266512
   60      C       1.7271387760     5.1681045536    -2.3134331424
   61      H       1.0365603024     5.9366330281    -2.6361458208
   62      C       2.0677125231     5.0817460212    -0.9996289521
   63      H       1.6499650443     5.7621947664    -0.2703795511
   64      C       2.9942901593     4.0529229099    -0.5872507019
   65      C       3.5130426141     3.7291643542     0.6320484583
   66      C       3.3140414726     4.2973461812     1.9434948379
   67      H       2.6734045312     5.1589115353     2.0718132265
   68      C       3.9376811051     3.7213718399     3.0051939394
   69      H       3.7937940640     4.1319501298     3.9958718672
   70      C       4.7786056079     2.5852973612     2.8563136611
   71      H       5.2531241457     2.1552334858     3.7264214233
   72      C       4.9811568323     2.0063391734     1.5841339209
   73      H       5.6046206724     1.1262080127     1.4821195847
   74      C       4.3683448866     2.5548015068     0.5061283974
   75      C      -2.6976303278    -1.3897730558     0.3667508113
   76      H      -1.8508196270    -1.5885784257    -0.2888625674
   77      H      -3.5417933044    -1.0990623851    -0.2614071220
   78      H      -2.9523873393    -2.3203587800     0.8770136037
 ----------------------------------------------------------------

    9   -1855.4200803217      6.68E-09 Convergence criterion met
 Total energy in the final basis set = -1855.42008032
 Final energy is   -1855.42008032166
 **  OPTIMIZATION CONVERGED  **

                    Orbital Energies (a.u.)
 --------------------------------------------------------------

 Alpha MOs
 -- Occupied --
-14.678 -14.657 -14.654 -10.522 -10.521 -10.511 -10.506 -10.501
-10.500 -10.498 -10.497 -10.494 -10.492 -10.490 -10.490 -10.486
-10.484 -10.483 -10.479 -10.479 -10.478 -10.474 -10.472 -10.471
-10.470 -10.470 -10.469 -10.469 -10.466 -10.465 -10.465 -10.465
-10.464 -10.464 -10.462 -10.451 -10.451 -10.445 -10.444 -10.443
-10.442 -10.442 -10.440 -10.438 -10.437 -10.431 -10.426  -1.092
 -1.043  -1.032  -1.019  -1.004  -0.988  -0.966  -0.961  -0.958
 -0.939  -0.934  -0.911  -0.902  -0.891  -0.888  -0.863  -0.860
 -0.849  -0.847  -0.834  -0.822  -0.819  -0.810  -0.797  -0.774
 -0.772  -0.746  -0.743  -0.725  -0.715  -0.712  -0.703  -0.692
 -0.681  -0.679  -0.672  -0.670  -0.667  -0.645  -0.619  -0.614
 -0.612  -0.610  -0.599  -0.586  -0.584  -0.575  -0.568  -0.563
 -0.544  -0.540  -0.539  -0.533  -0.532  -0.526  -0.521  -0.521
 -0.518  -0.509  -0.505  -0.504  -0.503  -0.501  -0.499  -0.495
 -0.492  -0.490  -0.487  -0.486  -0.474  -0.470  -0.465  -0.456
 -0.448  -0.447  -0.442  -0.439  -0.438  -0.437  -0.436  -0.433
 -0.429  -0.428  -0.426  -0.425  -0.421  -0.419  -0.415  -0.414
 -0.408  -0.404  -0.400  -0.399  -0.397  -0.396  -0.392  -0.379
 -0.374  -0.372  -0.362  -0.349  -0.331  -0.322  -0.312  -0.307
 -0.303  -0.293  -0.288  -0.283  -0.280  -0.231  -0.162

 Beta MOs
 -- Occupied --
-14.678 -14.657 -14.654 -10.522 -10.521 -10.512 -10.505 -10.501
-10.500 -10.498 -10.497 -10.494 -10.492 -10.490 -10.490 -10.485
-10.479 -10.479 -10.477 -10.476 -10.475 -10.474 -10.470 -10.469
-10.469 -10.468 -10.468 -10.468 -10.465 -10.465 -10.464 -10.464
-10.463 -10.462 -10.462 -10.451 -10.451 -10.445 -10.444 -10.443
-10.442 -10.442 -10.440 -10.438 -10.437 -10.431 -10.426  -1.092
 -1.041  -1.026  -1.019  -1.001  -0.986  -0.960  -0.958  -0.956
 -0.937  -0.930  -0.911  -0.895  -0.890  -0.883  -0.858  -0.857
 -0.849  -0.846  -0.834  -0.819  -0.810  -0.801  -0.796  -0.773
 -0.772  -0.745  -0.729  -0.725  -0.715  -0.710  -0.702  -0.691
 -0.676  -0.673  -0.672  -0.666  -0.664  -0.644  -0.619  -0.613
 -0.612  -0.609  -0.598  -0.585  -0.580  -0.572  -0.567  -0.560
 -0.540  -0.539  -0.537  -0.533  -0.530  -0.525  -0.521  -0.518
 -0.515  -0.508  -0.504  -0.502  -0.501  -0.500  -0.497  -0.492
 -0.491  -0.490  -0.485  -0.483  -0.473  -0.469  -0.457  -0.447
 -0.443  -0.440  -0.439  -0.437  -0.436  -0.436  -0.432  -0.429
 -0.427  -0.425  -0.424  -0.422  -0.418  -0.416  -0.413  -0.410
 -0.404  -0.402  -0.399  -0.398  -0.396  -0.395  -0.389  -0.379
 -0.374  -0.362  -0.338  -0.324  -0.320  -0.313  -0.306  -0.303
 -0.298  -0.290  -0.287  -0.280  -0.231

          Ground-State Mulliken Net Atomic Charges

     Atom                 Charge (a.u.)    Spin (a.u.)
  --------------------------------------------------------
      1 N                    -0.707993       0.000581
      2 C                     0.314354      -0.000172
      3 C                    -0.284346       0.000202
      4 H                     0.239695       0.000048
      5 C                    -0.236457      -0.000121
      6 H                     0.214370       0.000005
      7 C                    -0.217458       0.000238
      8 H                     0.212384      -0.000013
      9 C                    -0.327924      -0.000093
     10 H                     0.213372       0.000003
     11 C                     0.167743       0.000182
     12 C                     0.310325       0.000054
     13 C                    -0.292192       0.000083
     14 H                     0.261377      -0.000651
     15 C                    -0.233705       0.000275
     16 H                     0.218060      -0.000138
     17 C                    -0.219502      -0.000030
     18 H                     0.210118      -0.000009
     19 C                    -0.326044       0.000309
     20 H                     0.212705      -0.000016
     21 C                     0.159982       0.000069
     22 C                     0.228982      -0.005890
     23 C                    -0.297056       0.010059
     24 H                     0.284657      -0.001940
     25 C                    -0.237026       0.010410
     26 H                     0.233054      -0.000522
     27 C                    -0.303466      -0.002335
     28 H                     0.218269       0.000274
     29 C                     0.205954       0.019660
     30 C                     0.079540       0.007123
     31 C                    -0.528446      -0.000182
     32 H                     0.250130      -0.000005
     33 H                     0.248196       0.000254
     34 C                    -0.226206      -0.000025
     35 C                    -0.528623       0.000033
     36 H                     0.249332      -0.000008
     37 H                     0.257868       0.000127
     38 C                     0.084896       0.004416
     39 C                    -0.322176      -0.001132
     40 H                     0.247239       0.000132
     41 C                     0.079650       0.005551
     42 C                     0.079035      -0.000149
     43 C                    -0.279546      -0.002392
     44 H                     0.277956      -0.001142
     45 C                     0.241401       0.019564
     46 C                    -0.006546      -0.001876
     47 N                    -0.154124       0.002504
     48 C                    -0.009536      -0.000138
     49 N                    -0.153939       0.000186
     50 C                    -0.665169       0.000002
     51 H                     0.228165      -0.000000
     52 H                     0.227848      -0.000000
     53 H                     0.238453      -0.000000
     54 C                    -0.418374      -0.076070
     55 C                     0.124494       0.370252
     56 C                    -0.274537      -0.240100
     57 H                     0.218763       0.010492
     58 C                    -0.244297       0.618206
     59 H                     0.232651      -0.036917
     60 C                    -0.210539      -0.206589
     61 H                     0.231531       0.008123
     62 C                    -0.299695       0.332122
     63 H                     0.216447      -0.021698
     64 C                     0.107749       0.172347
     65 C                     0.120141       0.171050
     66 C                    -0.301285       0.326092
     67 H                     0.216512      -0.021363
     68 C                    -0.200282      -0.203753
     69 H                     0.231424       0.008030
     70 C                    -0.240101       0.619732
     71 H                     0.231960      -0.036902
     72 C                    -0.272438      -0.242774
     73 H                     0.217509       0.010652
     74 C                     0.097561       0.375698
     75 C                    -0.596166      -0.000004
     76 H                     0.232596       0.000001
     77 H                     0.221024       0.000001
     78 H                     0.219718       0.000002
  --------------------------------------------------------
  Sum of atomic charges =    -0.000000

                    Cartesian Multipole Moments
 -----------------------------------------------------------------
    Charge (ESU x 10^10)
                -0.0000
    Dipole Moment (Debye)
         X      -5.9785      Y      -4.8466      Z       0.7349
       Tot       7.7313
    Quadrupole Moments (Debye-Ang)
        XX    -358.7981     XY     -67.6599     YY    -291.7443
        XZ      19.3960     YZ      13.7208     ZZ    -257.1594

 Total job time:  30293.72s(wall), 86461.26s(cpu)
        *  Thank you very much for using Q-Chem.  Have a nice day.  *
