 Q-Chem 5.0, Q-Chem, Inc., Pleasanton, CA (2017)
 Q-Chem 5.0.1 for Intel X86 EM64T Linux

User input:
--------------------------------------------------------------
$rem
threads 8
jobtype opt
method PBEh-3c
basis def2-mSVP
mem_static      1024
mem_total       8000
sym_ignore      true
unrestricted true
scf_algorithm	diis
scf_max_cycles	250
solvent_method  pcm
geom_opt_tol_energy 25
geom_opt_tol_gradient 75
$end

$pcm
theory  iefpcm
$end
$solvent
dielectric      4.33
$end

$molecule
read uincoords_2.mol
$end
--------------------------------------------------------------

   26   -1855.4414373861      8.55E-09 Convergence criterion met
 Total energy in the final basis set = -1855.44143739
   17   -1855.4422124119      5.96E-09 Convergence criterion met
 Total energy in the final basis set = -1855.44221241
   16   -1855.4425685169      8.52E-09 Convergence criterion met
 Total energy in the final basis set = -1855.44256852
   14   -1855.4428575258      6.49E-09 Convergence criterion met
 Total energy in the final basis set = -1855.44285753
   16   -1855.4431078827      7.75E-09 Convergence criterion met
 Total energy in the final basis set = -1855.44310788
   16   -1855.4432379634      9.23E-09 Convergence criterion met
 Total energy in the final basis set = -1855.44323796
   16   -1855.4430089480      8.75E-09 Convergence criterion met
 Total energy in the final basis set = -1855.44300895
   15   -1855.4433048693      8.49E-09 Convergence criterion met
 Total energy in the final basis set = -1855.44330487
   16   -1855.4433272547      6.69E-09 Convergence criterion met
 Total energy in the final basis set = -1855.44332725
   16   -1855.4432963736      6.66E-09 Convergence criterion met
 Total energy in the final basis set = -1855.44329637
   14   -1855.4433131631      8.40E-09 Convergence criterion met
 Total energy in the final basis set = -1855.44331316
   14   -1855.4433259234      7.74E-09 Convergence criterion met
 Total energy in the final basis set = -1855.44332592
   14   -1855.4433354482      8.85E-09 Convergence criterion met
 Total energy in the final basis set = -1855.44333545

             Standard Nuclear Orientation (Angstroms)
    I     Atom           X                Y                Z
 ----------------------------------------------------------------
    1      N       0.1455864696     0.0162336496     0.2990806751
    2      C       0.0297700056    -0.5128371702     1.5864448908
    3      C       1.1493039631    -0.9381875716     2.3008053521
    4      H       2.1344272862    -0.8857952940     1.8575210314
    5      C       1.0065878718    -1.4163935160     3.5928842184
    6      H       1.8836883201    -1.7413184004     4.1374992965
    7      C      -0.2437618870    -1.4599101998     4.1875335427
    8      H      -0.3594314220    -1.8192722703     5.2014290923
    9      C      -1.3558501253    -1.0511751406     3.4644001598
   10      H      -2.3292359407    -1.1105173912     3.9324056555
   11      C      -1.2471220947    -0.5976063059     2.1572316457
   12      C      -0.7882312068     0.9662963539    -0.1287554641
   13      C      -0.4684538621     1.9456791317    -1.0701143268
   14      H       0.5123558206     1.9864811634    -1.5228289116
   15      C      -1.4075979124     2.8974454375    -1.4315195585
   16      H      -1.1361132827     3.6531888905    -2.1573769926
   17      C      -2.6679082330     2.8918407829    -0.8584385454
   18      H      -3.4006674979     3.6410696503    -1.1273379957
   19      C      -2.9910950516     1.8984172228     0.0549235065
   20      H      -3.9876281337     1.8862664732     0.4753201416
   21      C      -2.0797318729     0.9142957707     0.4148583087
   22      C       1.3646069175    -0.1246498515    -0.4098947227
   23      C       2.3522566710     0.8294521816    -0.2862281207
   24      H       2.1604141130     1.6520643156     0.3901298658
   25      C       1.5539214964    -1.1981644794    -1.2660321086
   26      H       0.7865080883    -1.9539628516    -1.3741995795
   27      C       2.7412129397    -1.2844812614    -1.9666250839
   28      H       2.9100735689    -2.1361610601    -2.6145475902
   29      C       3.5293054882     0.7870677782    -1.0360958211
   30      C       3.7347905861    -0.3067956406    -1.8770445203
   31      C       5.0071203777    -0.5219472507    -2.6402843011
   32      H       5.0181345144    -1.5459804428    -3.0156489614
   33      H       5.0543593470     0.1225579057    -3.5227323951
   34      C      -2.4409393586    -0.2865165804     1.2711678803
   35      C       6.2418542643    -0.2903556061    -1.7681001328
   36      H       7.0696600784    -0.8984674010    -2.1335444310
   37      H       6.0426416555    -0.6282255294    -0.7472215996
   38      C       6.6571195180     1.1485804962    -1.7858222124
   39      C       7.9556767756     1.4417283964    -2.1960173382
   40      H       8.6283839037     0.6280778668    -2.4344254780
   41      C       8.4092056780     2.7427602044    -2.3230027439
   42      C       7.5301129362     3.7924725740    -2.0387811278
   43      C       6.2401974813     3.5064658725    -1.6284050442
   44      H       5.5860852377     4.3380848177    -1.4056447229
   45      C       5.7788290253     2.1953254400    -1.4886297913
   46      C       9.7442885766     2.9931450764    -2.7526321307
   47      N      10.8248144473     3.1841099239    -3.1009318413
   48      C       7.9438378749     5.1502461582    -2.1685914968
   49      N       8.2709061148     6.2489545014    -2.2727887580
   50      C      -3.7200923986    -0.0651685346     2.0720844943
   51      H      -4.5663069096     0.1096279026     1.4079293948
   52      H      -3.9714889159    -0.9510689595     2.6549405361
   53      H      -3.6382153096     0.7822420256     2.7538082274
   54      C       4.3726155112     2.0582818145    -0.9034867852
   55      C       3.4707838610     3.1836534488    -1.4052130569
   56      C       2.9539093771     3.3587534080    -2.6494690759
   57      H       3.1987328266     2.6779269918    -3.4564308822
   58      C       2.0687615286     4.4356735659    -2.8797597531
   59      H       1.6537957227     4.5905187088    -3.8658182587
   60      C       1.7165702080     5.3171015327    -1.8214754798
   61      H       1.0271178295     6.1255180076    -2.0283385960
   62      C       2.2162020119     5.1655304850    -0.5644868430
   63      H       1.9307392370     5.8362521782     0.2346370606
   64      C       3.1264243862     4.0743423504    -0.3061360790
   65      C       3.7402463805     3.6515044712     0.8373230513
   66      C       3.7033731746     4.1525246389     2.1918473675
   67      H       3.1645137873     5.0621025612     2.4208567501
   68      C       4.3459030451     3.4513168972     3.1635119454
   69      H       4.3209409610     3.8085678450     4.1848854738
   70      C       5.0544399317     2.2494848518     2.8814027185
   71      H       5.5459152835     1.7189228727     3.6843827277
   72      C       5.1136161924     1.7461957218     1.5623327539
   73      H       5.6414064352     0.8226435490     1.3554219193
   74      C       4.4884949006     2.4278903910     0.5702398235
   75      C      -2.6761295694    -1.4887181566     0.3309567974
   76      H      -1.7992837039    -1.7135454084    -0.2757566124
   77      H      -3.5065240702    -1.2795826292    -0.3460597933
   78      H      -2.9229427925    -2.3804291936     0.9101011932
 ----------------------------------------------------------------

   14   -1855.4433355233      8.35E-09 Convergence criterion met
 Total energy in the final basis set = -1855.44333552
 Final energy is   -1855.44333552331
 **  OPTIMIZATION CONVERGED  **

                    Orbital Energies (a.u.)
 --------------------------------------------------------------

 Alpha MOs
 -- Occupied --
-14.678 -14.664 -14.663 -10.520 -10.519 -10.511 -10.510 -10.503
-10.501 -10.494 -10.492 -10.492 -10.492 -10.488 -10.488 -10.479
-10.476 -10.476 -10.472 -10.471 -10.471 -10.468 -10.463 -10.463
-10.461 -10.460 -10.460 -10.457 -10.457 -10.457 -10.456 -10.456
-10.456 -10.456 -10.455 -10.452 -10.452 -10.445 -10.445 -10.444
-10.443 -10.443 -10.441 -10.438 -10.437 -10.426 -10.424  -1.091
 -1.044  -1.030  -1.028  -1.003  -0.982  -0.959  -0.958  -0.957
 -0.935  -0.926  -0.910  -0.895  -0.885  -0.883  -0.855  -0.852
 -0.849  -0.840  -0.835  -0.819  -0.813  -0.806  -0.791  -0.770
 -0.768  -0.740  -0.734  -0.722  -0.710  -0.706  -0.702  -0.686
 -0.673  -0.671  -0.671  -0.663  -0.661  -0.641  -0.618  -0.611
 -0.611  -0.601  -0.593  -0.579  -0.575  -0.567  -0.560  -0.557
 -0.539  -0.536  -0.534  -0.530  -0.525  -0.521  -0.520  -0.514
 -0.509  -0.503  -0.502  -0.498  -0.497  -0.495  -0.493  -0.492
 -0.489  -0.487  -0.480  -0.478  -0.469  -0.462  -0.459  -0.453
 -0.449  -0.446  -0.442  -0.441  -0.439  -0.436  -0.434  -0.430
 -0.426  -0.426  -0.423  -0.420  -0.418  -0.416  -0.413  -0.409
 -0.405  -0.403  -0.402  -0.400  -0.394  -0.390  -0.388  -0.379
 -0.373  -0.364  -0.362  -0.344  -0.323  -0.321  -0.308  -0.302
 -0.299  -0.292  -0.289  -0.283  -0.276  -0.232  -0.155

 Beta MOs
 -- Occupied --
-14.678 -14.664 -14.663 -10.520 -10.519 -10.511 -10.510 -10.504
-10.500 -10.494 -10.492 -10.492 -10.492 -10.488 -10.488 -10.478
-10.471 -10.471 -10.471 -10.469 -10.468 -10.468 -10.460 -10.460
-10.460 -10.459 -10.459 -10.457 -10.456 -10.456 -10.456 -10.456
-10.455 -10.454 -10.454 -10.452 -10.452 -10.445 -10.445 -10.444
-10.443 -10.443 -10.441 -10.438 -10.437 -10.426 -10.424  -1.091
 -1.044  -1.029  -1.023  -1.000  -0.980  -0.959  -0.958  -0.947
 -0.933  -0.922  -0.910  -0.890  -0.884  -0.876  -0.850  -0.849
 -0.848  -0.840  -0.835  -0.819  -0.806  -0.792  -0.790  -0.770
 -0.767  -0.739  -0.723  -0.721  -0.710  -0.705  -0.701  -0.685
 -0.671  -0.669  -0.665  -0.662  -0.654  -0.639  -0.618  -0.611
 -0.610  -0.600  -0.592  -0.578  -0.571  -0.564  -0.559  -0.553
 -0.538  -0.534  -0.532  -0.529  -0.523  -0.520  -0.520  -0.511
 -0.506  -0.502  -0.501  -0.497  -0.495  -0.494  -0.492  -0.491
 -0.488  -0.483  -0.479  -0.476  -0.467  -0.461  -0.455  -0.450
 -0.446  -0.441  -0.440  -0.436  -0.434  -0.431  -0.429  -0.426
 -0.424  -0.423  -0.419  -0.418  -0.416  -0.415  -0.410  -0.405
 -0.403  -0.401  -0.400  -0.396  -0.394  -0.387  -0.385  -0.378
 -0.373  -0.362  -0.333  -0.320  -0.313  -0.307  -0.301  -0.299
 -0.295  -0.290  -0.284  -0.282  -0.232

          Ground-State Mulliken Net Atomic Charges

     Atom                 Charge (a.u.)    Spin (a.u.)
  --------------------------------------------------------
      1 N                    -0.704081       0.000065
      2 C                     0.310604      -0.000029
      3 C                    -0.302132       0.000039
      4 H                     0.256737       0.000078
      5 C                    -0.258579      -0.000002
      6 H                     0.237691      -0.000000
      7 C                    -0.243805       0.000019
      8 H                     0.233711       0.000000
      9 C                    -0.343767       0.000008
     10 H                     0.235067      -0.000001
     11 C                     0.151132       0.000006
     12 C                     0.307255       0.000112
     13 C                    -0.306073      -0.000394
     14 H                     0.272761      -0.000434
     15 C                    -0.255637       0.000558
     16 H                     0.234830       0.000214
     17 C                    -0.244324      -0.000112
     18 H                     0.232537       0.000005
     19 C                    -0.342327       0.000118
     20 H                     0.235018       0.000004
     21 C                     0.145194      -0.000106
     22 C                     0.212777      -0.001969
     23 C                    -0.286966      -0.000073
     24 H                     0.290188      -0.000601
     25 C                    -0.253221       0.006846
     26 H                     0.252656      -0.000382
     27 C                    -0.321852       0.001547
     28 H                     0.243661       0.000025
     29 C                     0.217890       0.023865
     30 C                     0.060945       0.003511
     31 C                    -0.530658       0.000126
     32 H                     0.264644      -0.000038
     33 H                     0.259873       0.000092
     34 C                    -0.217602       0.000001
     35 C                    -0.546984      -0.000093
     36 H                     0.269738       0.000010
     37 H                     0.269434       0.000202
     38 C                     0.097957       0.006122
     39 C                    -0.325193      -0.001971
     40 H                     0.275190       0.000180
     41 C                     0.071760       0.008491
     42 C                     0.079711      -0.003752
     43 C                    -0.295397       0.005665
     44 H                     0.293760      -0.001875
     45 C                     0.228861       0.019057
     46 C                     0.012824      -0.002536
     47 N                    -0.201380       0.003558
     48 C                     0.009839       0.000832
     49 N                    -0.201501      -0.000984
     50 C                    -0.675527      -0.000000
     51 H                     0.237568       0.000000
     52 H                     0.237618      -0.000000
     53 H                     0.240658      -0.000000
     54 C                    -0.409698      -0.076954
     55 C                     0.073741       0.376649
     56 C                    -0.284580      -0.241198
     57 H                     0.244268       0.010308
     58 C                    -0.268227       0.608733
     59 H                     0.252351      -0.035847
     60 C                    -0.219447      -0.203752
     61 H                     0.250580       0.007971
     62 C                    -0.325397       0.326310
     63 H                     0.240084      -0.020966
     64 C                     0.121180       0.157801
     65 C                     0.107825       0.187482
     66 C                    -0.322931       0.319599
     67 H                     0.240168      -0.020719
     68 C                    -0.220480      -0.197664
     69 H                     0.250753       0.007541
     70 C                    -0.259859       0.623201
     71 H                     0.251423      -0.036681
     72 C                    -0.290877      -0.241622
     73 H                     0.242489       0.010428
     74 C                     0.125094       0.373377
     75 C                    -0.612273      -0.000004
     76 H                     0.237830       0.000000
     77 H                     0.226754       0.000000
     78 H                     0.226142      -0.000001
  --------------------------------------------------------
  Sum of atomic charges =    -0.000000

                    Cartesian Multipole Moments
 -----------------------------------------------------------------
    Charge (ESU x 10^10)
                -0.0000
    Dipole Moment (Debye)
         X      -6.4974      Y      -6.5788      Z       1.6383
       Tot       9.3905
    Quadrupole Moments (Debye-Ang)
        XX    -365.6617     XY     -82.7567     YY    -298.9780
        XZ      30.9830     YZ      21.7531     ZZ    -259.9699

 Total job time:  21692.80s(wall), 62519.99s(cpu)
        *  Thank you very much for using Q-Chem.  Have a nice day.  *
