 Q-Chem 5.1, Q-Chem, Inc., Pleasanton, CA (2018)
 Q-Chem 5.1.1 for Intel X86 EM64T Linux

User input:
--------------------------------------------------------------
$rem
threads 4
jobtype	opt
method PBEh-3c
basis def2-mSVP
mem_static	1024
mem_total	4000
sym_ignore	true
scf_convergence	9
solvent_method	pcm
$end

$molecule
read gsopt.mol
$end

$solvent
dielectric	1.0001
$end

$pcm
theory iefpcm
$end
--------------------------------------------------------------

   17   -3317.7913581036      8.32e-10  Convergence criterion met
 Total energy in the final basis set =    -3317.7913581036
   14   -3317.7916638850      6.57e-10  Convergence criterion met
 Total energy in the final basis set =    -3317.7916638850
   14   -3317.7908220886      5.57e-10  Convergence criterion met
 Total energy in the final basis set =    -3317.7908220886
   14   -3317.7910874313      4.79e-10  Convergence criterion met
 Total energy in the final basis set =    -3317.7910874313
   13   -3317.7915099056      5.30e-10  Convergence criterion met
 Total energy in the final basis set =    -3317.7915099056
   13   -3317.7914640944      5.82e-10  Convergence criterion met
 Total energy in the final basis set =    -3317.7914640944
   13   -3317.7910753434      8.57e-10  Convergence criterion met
 Total energy in the final basis set =    -3317.7910753434
   13   -3317.7912326502      3.65e-10  Convergence criterion met
   13   -3317.7914164479      4.55e-10  Convergence criterion met
 Total energy in the final basis set =    -3317.7914164479
   12   -3317.7915960193      9.57e-10  Convergence criterion met
 Total energy in the final basis set =    -3317.7915960193
   11   -3317.7915980741      6.94e-10  Convergence criterion met
 Total energy in the final basis set =    -3317.7915980741
   10   -3317.7915953776      8.63e-10  Convergence criterion met
 Total energy in the final basis set =    -3317.7915953776
   11   -3317.7916080083      5.87e-10  Convergence criterion met
 Total energy in the final basis set =    -3317.7916080083
   10   -3317.7916127779      7.52e-10  Convergence criterion met
 Total energy in the final basis set =    -3317.7916127779

             Standard Nuclear Orientation (Angstroms)
    I     Atom           X                Y                Z
 ----------------------------------------------------------------
    1      N       0.0712932224     0.5231027256    -0.1052781912
    2      C       0.3905799595     0.4904205466     1.2478910038
    3      C       1.0464142092     0.6747838059    -1.0847848585
    4      C       1.7144919148     0.6372548716     1.6723730394
    5      C       1.9711270695     0.5948271021     3.0387902694
    6      H       2.9914662770     0.7084883622     3.3835819825
    7      C       0.9728805054     0.4141499752     3.9788215106
    8      H       1.2134804495     0.3862394886     5.0327086533
    9      C      -0.3345272529     0.2733914829     3.5434665341
   10      H      -1.1387205897     0.1341970405     4.2541854647
   11      C      -0.6247399088     0.3118734229     2.1945318675
   12      H      -1.6500529239     0.2030438422     1.8706766689
   13      C       2.3910409459     0.8323728658    -0.7374798976
   14      C       3.3206522249     0.9838756122    -1.7618295339
   15      H       4.3650272870     1.1111056441    -1.5052391386
   16      C       2.9666291594     0.9821851361    -3.0983873689
   17      H       3.7198372498     1.1030948196    -3.8648454257
   18      C       1.6313674782     0.8226092298    -3.4293631757
   19      H       1.3190092315     0.8162027799    -4.4660642788
   20      C       0.6829473192     0.6701851552    -2.4386037655
   21      H      -0.3523478069     0.5488550159    -2.7230015445
   22      C      -1.2698524961     0.3013003870    -0.5199432040
   23      C      -2.1118356231     1.3744891451    -0.7657469824
   24      H      -1.7497363390     2.3818157626    -0.5937357380
   25      C      -1.7215581123    -0.9899600907    -0.7320235492
   26      H      -1.0548514292    -1.8221893030    -0.5338965203
   27      C      -3.0014395476    -1.2226986057    -1.2231029323
   28      C      -3.3941617155     1.1650804078    -1.2584517598
   29      C      -3.8432305587    -0.1401665505    -1.5050864407
   30      C      -3.4219712166    -2.6408631106    -1.5181116711
   31      H      -3.0642175348    -3.2989926754    -0.7218054590
   32      H      -4.5116321606    -2.7277349647    -1.5043072737
   33      C      -4.3042836873     2.3439072984    -1.4855888235
   34      H      -4.9696371842     2.1506973593    -2.3328997317
   35      H      -3.7123271896     3.2174694521    -1.7687605596
   36      C       2.8646788604     0.8540700710     0.7043246526
   37      C      -2.8922144217    -3.1433631907    -2.8599117388
   38      H      -3.2755694088    -2.5469746913    -3.6878978234
   39      H      -3.1902814359    -4.1779199632    -3.0322100078
   40      H      -1.8031594133    -3.0993995846    -2.8957411692
   41      C      -5.1395927301     2.6752053848    -0.2506866663
   42      H      -5.7882682244     3.5316459042    -0.4369472073
   43      H      -5.7737150743     1.8360707792     0.0353896915
   44      H      -4.5021962628     2.9160389482     0.6005915514
   45      C       3.4993070138     2.2250363891     0.9906826461
   46      H       2.7707134877     3.0227856901     0.8465257481
   47      H       3.8666763087     2.2868108704     2.0156137496
   48      H       4.3432817502     2.4192693742     0.3274661969
   49      C       3.9049955418    -0.2606065509     0.9031040735
   50      H       3.4645816675    -1.2378755847     0.7059697813
   51      H       4.7570131079    -0.1367832797     0.2337443889
   52      H       4.2941201231    -0.2667015626     1.9215073399
   53      B      -5.2382500897    -0.3721706609    -2.1948504124
   54      C      -6.5112799474    -0.7286450170    -1.3724893415
   55      C      -6.4365432400    -0.9397376788     0.0097080166
   56      H      -5.4803498698    -0.8459974419     0.5130205507
   57      C      -7.5743595679    -1.2741693790     0.7257901342
   58      C      -8.8129929667    -1.3825182972     0.0563365416
   59      C      -8.9023149495    -1.1612539092    -1.3032289988
   60      H      -9.8586778111    -1.2425642683    -1.8082317944
   61      C      -7.7588745035    -0.8430568801    -2.0346175952
   62      C      -7.8075142699    -1.5737823687     2.1425854084
   63      C      -7.0334770440    -1.6428303650     3.2696573346
   64      H      -5.9695668951    -1.4430895873     3.2470834563
   65      C      -9.1830300636    -1.8530329205     2.2641562429
   66      C      -9.8210227538    -2.1984311990     3.4490397186
   67      C      -9.8381635250    -1.7498677744     1.0250923982
   68      C     -11.1834458615    -2.0001517598     0.9601251801
   69      H     -11.7343499827    -1.9382328002     0.0293692994
   70      C      -7.6528931375    -1.9886252811     4.4947823459
   71      H      -7.0390084183    -2.0422768272     5.3840584646
   72      C      -8.9972116889    -2.2596977091     4.5973734247
   73      H      -9.4229044171    -2.5219955588     5.5579762183
   74      C     -11.2119568180    -2.4510186499     3.3606058085
   75      H     -11.7699919493    -2.7249144007     4.2474171400
   76      C     -11.8593126850    -2.3524075787     2.1509439653
   77      H     -12.9219268925    -2.5519927824     2.1042539339
   78      C      -5.3277752822    -0.2357207727    -3.7459666584
   79      C      -4.1776553830     0.0047962471    -4.5066793215
   80      H      -3.2174943373     0.0998628115    -4.0125516007
   81      C      -4.2651336022     0.1185440296    -5.8833249092
   82      C      -5.5207894941     0.0004380041    -6.5182910031
   83      C      -6.6628119730    -0.2323027096    -5.7799768484
   84      H      -7.6247281891    -0.3184459109    -6.2731669717
   85      C      -6.5809036907    -0.3572870827    -4.3934200161
   86      C      -3.2595488661     0.3571056788    -6.9248923545
   87      C      -1.9041022730     0.5516278137    -6.9556220996
   88      H      -1.3052947011     0.5521751675    -6.0532075290
   89      C      -3.9585982435     0.3747122599    -8.1476136389
   90      C      -3.3732435693     0.5763392248    -9.3930405247
   91      C      -5.3349954617     0.1638216564    -7.9570786507
   92      C      -6.1625326381     0.1544427424    -9.0498766251
   93      H      -7.2306764838    -0.0016289482    -8.9590786770
   94      C      -1.2765892178     0.7579655901    -8.2079755968
   95      H      -0.2056090789     0.9107047666    -8.2280435209
   96      C      -1.9725272069     0.7730301420    -9.3937082070
   97      H      -1.4470193893     0.9357137304   -10.3267042329
   98      C      -4.2464534658     0.5625307403   -10.5080414314
   99      H      -3.8531382057     0.7140789179   -11.5058222358
  100      C      -5.5942732787     0.3575671192   -10.3288408754
  101      H      -6.2459824208     0.3513496955   -11.1928658169
  102      B      -7.8650578780    -0.6352842929    -3.5704289728
  103      C      -9.2586326583    -0.7196424474    -4.2993652488
  104      C      -9.9767380522     0.4474244927    -4.5983135588
  105      C     -11.1934192656     0.3609816539    -5.2630891078
  106      H     -11.7507397647     1.2595684617    -5.5040174793
  107      C     -11.7133640635    -0.8712157862    -5.6212511424
  108      C     -11.0142485099    -2.0263714620    -5.3221720390
  109      H     -11.4316878739    -2.9852079034    -5.6103201034
  110      C      -9.7863987280    -1.9619745512    -4.6746239682
  111      N     -12.9568163027    -0.9500396144    -6.3043440608
  112      C     -12.9593041103    -0.9965196480    -7.6933798204
  113      C     -14.1361713494    -0.9757298616    -5.5694555134
  114      C     -15.3779146610    -1.0183617873    -6.2130182117
  115      C     -16.5253658453    -1.0360114714    -5.4276638252
  116      H     -17.4913601388    -1.0639670710    -5.9167888781
  117      C     -16.4844240982    -1.0162209713    -4.0461786832
  118      H     -17.4000160913    -1.0290009232    -3.4708363465
  119      C     -15.2491092319    -0.9800000947    -3.4208419077
  120      H     -15.1813692029    -0.9650553800    -2.3408419064
  121      C     -14.0894346018    -0.9612737646    -4.1702478114
  122      H     -13.1359203623    -0.9330598480    -3.6628542942
  123      C     -14.1624839368    -1.0430274155    -8.4055153069
  124      C     -14.1041905275    -1.0858472676    -9.7947303090
  125      H     -15.0296766303    -1.1190013122   -10.3561308877
  126      C     -12.9111079592    -1.0858789101   -10.4927618482
  127      H     -12.9088670569    -1.1207904502   -11.5736527380
  128      C     -11.7265188724    -1.0396679480    -9.7770224327
  129      H     -10.7742482364    -1.0389982315   -10.2914243530
  130      C     -11.7481443003    -0.9938146556    -8.3972366830
  131      H     -10.8117485666    -0.9562656709    -7.8600457993
  132      C      -9.0261948663    -3.2435917315    -4.4499412141
  133      H      -9.7071646962    -4.0113912654    -4.0724915003
  134      H      -8.2697444656    -3.1123497474    -3.6719944371
  135      C      -9.4877382371     1.8004376447    -4.1563919321
  136      H      -9.7389854746     2.5460528670    -4.9150090240
  137      H      -8.3968447668     1.8093584781    -4.0816664069
  138      C     -15.5209482025    -1.0410898610    -7.7265438349
  139      C     -10.0972999291     2.2130543856    -2.8181319482
  140      H      -9.8348519364     1.5057142241    -2.0310972356
  141      H      -9.7443824749     3.1980819157    -2.5115350010
  142      H     -11.1856373824     2.2513592378    -2.8790812882
  143      C      -8.3588652039    -3.7447423004    -5.7292373127
  144      H      -7.6364469641    -3.0207088368    -6.1070037038
  145      H      -9.0952587499    -3.9184927626    -6.5147914754
  146      H      -7.8298746676    -4.6819535840    -5.5549891098
  147      C     -16.2928009576    -2.3061974683    -8.1418323851
  148      H     -15.7540470419    -3.2059458171    -7.8458930977
  149      H     -16.4419074483    -2.3446375739    -9.2215515518
  150      H     -17.2807088926    -2.3398756850    -7.6810047578
  151      C     -16.3041155393     0.2049873398    -8.1765338034
  152      H     -15.7740485604     1.1174280378    -7.9045363134
  153      H     -16.4509629854     0.2122796089    -9.2575033259
  154      H     -17.2920521809     0.2409104776    -7.7153930240
 ----------------------------------------------------------------

   10   -3317.7916135751      4.43e-10  Convergence criterion met
 Total energy in the final basis set =    -3317.7916135751
 Final energy is   -3317.79161357506
 **  OPTIMIZATION CONVERGED  **

                    Orbital Energies (a.u.)
 --------------------------------------------------------------

 Alpha MOs
 -- Occupied --
-14.673 -14.673 -10.489 -10.489 -10.489 -10.488 -10.485 -10.485
-10.469 -10.469 -10.469 -10.469 -10.469 -10.469 -10.468 -10.468
-10.467 -10.466 -10.466 -10.466 -10.466 -10.466 -10.466 -10.466
-10.466 -10.465 -10.464 -10.464 -10.463 -10.463 -10.463 -10.463
-10.461 -10.460 -10.458 -10.458 -10.458 -10.458 -10.458 -10.457
-10.450 -10.450 -10.447 -10.447 -10.447 -10.446 -10.445 -10.445
-10.445 -10.444 -10.442 -10.441 -10.441 -10.441 -10.441 -10.441
-10.441 -10.440 -10.440 -10.440 -10.440 -10.440 -10.440 -10.440
-10.439 -10.438 -10.436 -10.436 -10.436 -10.435 -10.434 -10.433
-10.433 -10.433 -10.433 -10.432 -10.426 -10.425 -10.425 -10.424
-10.423 -10.423 -10.423 -10.422  -6.957  -6.955  -1.086  -1.085
 -1.021  -1.020  -0.973  -0.972  -0.966  -0.964  -0.955  -0.955
 -0.950  -0.950  -0.938  -0.937  -0.914  -0.906  -0.906  -0.905
 -0.897  -0.895  -0.872  -0.870  -0.860  -0.859  -0.851  -0.851
 -0.847  -0.847  -0.832  -0.832  -0.830  -0.827  -0.823  -0.818
 -0.817  -0.812  -0.812  -0.810  -0.807  -0.807  -0.789  -0.788
 -0.766  -0.766  -0.740  -0.735  -0.731  -0.725  -0.721  -0.721
 -0.720  -0.719  -0.709  -0.709  -0.705  -0.704  -0.694  -0.693
 -0.688  -0.684  -0.676  -0.670  -0.667  -0.667  -0.654  -0.653
 -0.639  -0.638  -0.637  -0.637  -0.613  -0.613  -0.612  -0.612
 -0.600  -0.599  -0.597  -0.593  -0.588  -0.587  -0.586  -0.580
 -0.579  -0.563  -0.561  -0.556  -0.550  -0.548  -0.534  -0.533
 -0.533  -0.533  -0.531  -0.528  -0.523  -0.521  -0.521  -0.519
 -0.516  -0.514  -0.508  -0.507  -0.506  -0.505  -0.503  -0.498
 -0.497  -0.496  -0.496  -0.495  -0.494  -0.490  -0.490  -0.489
 -0.489  -0.488  -0.488  -0.488  -0.482  -0.480  -0.479  -0.476
 -0.476  -0.476  -0.476  -0.475  -0.473  -0.473  -0.465  -0.462
 -0.459  -0.457  -0.449  -0.449  -0.448  -0.446  -0.444  -0.443
 -0.441  -0.440  -0.437  -0.435  -0.435  -0.431  -0.430  -0.430
 -0.429  -0.425  -0.424  -0.424  -0.421  -0.420  -0.413  -0.412
 -0.412  -0.407  -0.406  -0.405  -0.403  -0.401  -0.399  -0.399
 -0.398  -0.398  -0.398  -0.397  -0.396  -0.394  -0.392  -0.392
 -0.390  -0.388  -0.385  -0.378  -0.377  -0.372  -0.370  -0.369
 -0.368  -0.365  -0.363  -0.363  -0.358  -0.355  -0.353  -0.346
 -0.323  -0.318  -0.299  -0.298  -0.296  -0.295  -0.287  -0.285
 -0.285  -0.283  -0.281  -0.279  -0.279  -0.279  -0.278  -0.266
 -0.261  -0.260  -0.219  -0.218

          Ground-State Mulliken Net Atomic Charges

     Atom                 Charge (a.u.)
  ----------------------------------------
      1 N                    -0.722632
      2 C                     0.316279
      3 C                     0.310923
      4 C                     0.142977
      5 C                    -0.291461
      6 H                     0.206019
      7 C                    -0.227518
      8 H                     0.210264
      9 C                    -0.230765
     10 H                     0.211845
     11 C                    -0.307314
     12 H                     0.247758
     13 C                     0.145058
     14 C                    -0.291177
     15 H                     0.206225
     16 C                    -0.227158
     17 H                     0.209872
     18 C                    -0.229165
     19 H                     0.205886
     20 C                    -0.302207
     21 H                     0.247447
     22 C                     0.186403
     23 C                    -0.301317
     24 H                     0.224377
     25 C                    -0.284925
     26 H                     0.225228
     27 C                     0.065134
     28 C                     0.064491
     29 C                    -0.217319
     30 C                    -0.554944
     31 H                     0.235744
     32 H                     0.253923
     33 C                    -0.553704
     34 H                     0.256400
     35 H                     0.235648
     36 C                    -0.210244
     37 C                    -0.645687
     38 H                     0.241182
     39 H                     0.221884
     40 H                     0.219800
     41 C                    -0.643866
     42 H                     0.220875
     43 H                     0.241199
     44 H                     0.219359
     45 C                    -0.595206
     46 H                     0.233412
     47 H                     0.215941
     48 H                     0.215454
     49 C                    -0.600124
     50 H                     0.233968
     51 H                     0.215904
     52 H                     0.215835
     53 B                     0.667705
     54 C                    -0.150319
     55 C                    -0.398419
     56 H                     0.229383
     57 C                     0.112926
     58 C                     0.087282
     59 C                    -0.384735
     60 H                     0.229701
     61 C                    -0.151394
     62 C                     0.198084
     63 C                    -0.385355
     64 H                     0.218914
     65 C                    -0.062770
     66 C                     0.253454
     67 C                     0.197482
     68 C                    -0.375597
     69 H                     0.218245
     70 C                    -0.202938
     71 H                     0.228191
     72 C                    -0.336442
     73 H                     0.222429
     74 C                    -0.331845
     75 H                     0.222129
     76 C                    -0.205988
     77 H                     0.228688
     78 C                    -0.150012
     79 C                    -0.392637
     80 H                     0.235664
     81 C                     0.111582
     82 C                     0.087581
     83 C                    -0.383869
     84 H                     0.229844
     85 C                    -0.150951
     86 C                     0.198916
     87 C                    -0.387167
     88 H                     0.219826
     89 C                    -0.063598
     90 C                     0.251892
     91 C                     0.198236
     92 C                    -0.376217
     93 H                     0.217535
     94 C                    -0.202514
     95 H                     0.227006
     96 C                    -0.335921
     97 H                     0.222393
     98 C                    -0.331081
     99 H                     0.222038
    100 C                    -0.205434
    101 H                     0.228345
    102 B                     0.670944
    103 C                    -0.228984
    104 C                     0.065563
    105 C                    -0.292795
    106 H                     0.224473
    107 C                     0.192140
    108 C                    -0.292182
    109 H                     0.226098
    110 C                     0.065489
    111 N                    -0.723312
    112 C                     0.314619
    113 C                     0.315148
    114 C                     0.142737
    115 C                    -0.290664
    116 H                     0.206056
    117 C                    -0.227990
    118 H                     0.210337
    119 C                    -0.229736
    120 H                     0.210289
    121 C                    -0.305044
    122 H                     0.245460
    123 C                     0.142542
    124 C                    -0.290367
    125 H                     0.205999
    126 C                    -0.227969
    127 H                     0.210204
    128 C                    -0.228754
    129 H                     0.208733
    130 C                    -0.303959
    131 H                     0.245519
    132 C                    -0.553064
    133 H                     0.236035
    134 H                     0.256623
    135 C                    -0.553132
    136 H                     0.236114
    137 H                     0.255283
    138 C                    -0.211899
    139 C                    -0.644497
    140 H                     0.239091
    141 H                     0.221580
    142 H                     0.219923
    143 C                    -0.641532
    144 H                     0.234841
    145 H                     0.219113
    146 H                     0.222853
    147 C                    -0.598252
    148 H                     0.234260
    149 H                     0.215229
    150 H                     0.215841
    151 C                    -0.595394
    152 H                     0.233266
    153 H                     0.215172
    154 H                     0.215703
  ----------------------------------------
  Sum of atomic charges =     0.000000

                    Cartesian Multipole Moments
 -----------------------------------------------------------------
    Charge (ESU x 10^10)
                 0.0000
    Dipole Moment (Debye)
         X      -0.2469      Y      -0.4784      Z       0.2077
       Tot       0.5770
    Quadrupole Moments (Debye-Ang)
        XX    -474.2997     XY       9.3424     YY    -507.6336
        XZ     -20.4829     YZ     -10.5553     ZZ    -446.2439

 Total job time:  150821.46s(wall), 540316.28s(cpu)
        *  Thank you very much for using Q-Chem.  Have a nice day.  *
