 Q-Chem 5.1, Q-Chem, Inc., Pleasanton, CA (2018)
 Q-Chem 5.1.1 for Intel X86 EM64T Linux

User input:
--------------------------------------------------------------
$rem
threads 4
jobtype	opt
method PBEh-3c
basis def2-mSVP
mem_static	1024
mem_total	4000
sym_ignore	true
scf_convergence	9
solvent_method	pcm
$end

$molecule
read tol_preopt.mol
$end

$solvent
dielectric	2.38
$end

$pcm
theory iefpcm
heavypoints 194
hpoints     194
$end
--------------------------------------------------------------

   17   -3317.8093577706      5.30e-10  Convergence criterion met
 Total energy in the final basis set =    -3317.8093577706
   14   -3317.8093370146      6.39e-10  Convergence criterion met
 Total energy in the final basis set =    -3317.8093370146
   14   -3317.8093405124      6.40e-10  Convergence criterion met
 Total energy in the final basis set =    -3317.8093405124
   14   -3317.8093490291      6.28e-10  Convergence criterion met
 Total energy in the final basis set =    -3317.8093490291
   14   -3317.8093468206      6.11e-10  Convergence criterion met
 Total energy in the final basis set =    -3317.8093468206
   14   -3317.8093483319      6.15e-10  Convergence criterion met
 Total energy in the final basis set =    -3317.8093483319

             Standard Nuclear Orientation (Angstroms)
    I     Atom           X                Y                Z
 ----------------------------------------------------------------
    1      N       0.0708235874     0.5312597726    -0.1066951634
    2      C       0.3919926146     0.4969944216     1.2456418854
    3      C       1.0445765777     0.6865990258    -1.0867845988
    4      C       1.7166575450     0.6455979226     1.6692096348
    5      C       1.9756072197     0.6009908696     3.0356710241
    6      H       2.9963036376     0.7153369373     3.3795499483
    7      C       0.9782573899     0.4166133947     3.9771148122
    8      H       1.2204230334     0.3869729741     5.0308183131
    9      C      -0.3302325547     0.2743808317     3.5430851507
   10      H      -1.1336858593     0.1322488602     4.2542872886
   11      C      -0.6221184542     0.3148562500     2.1938510492
   12      H      -1.6481115077     0.2043170429     1.8722746386
   13      C       2.3899887922     0.8458803420    -0.7408989233
   14      C       3.3186236308     1.0012747997    -1.7663319838
   15      H       4.3632799677     1.1300580542    -1.5112382973
   16      C       2.9624756629     1.0015806084    -3.1031406618
   17      H       3.7146847066     1.1253524055    -3.8704200083
   18      C       1.6263882187     0.8404355370    -3.4332024913
   19      H       1.3120044146     0.8357447783    -4.4694005132
   20      C       0.6793010604     0.6842769625    -2.4407516498
   21      H      -0.3559692526     0.5622512854    -2.7254614983
   22      C      -1.2709722573     0.3053257236    -0.5205617778
   23      C      -2.1162427872     1.3767783326    -0.7632491527
   24      H      -1.7589553114     2.3858427373    -0.5901632311
   25      C      -1.7171512678    -0.9878386505    -0.7342630009
   26      H      -1.0482013175    -1.8190496402    -0.5384405175
   27      C      -2.9969961042    -1.2239669786    -1.2248400957
   28      C      -3.3987095345     1.1629992572    -1.2549433713
   29      C      -3.8427768536    -0.1435943380    -1.5038121861
   30      C      -3.4133216511    -2.6431804748    -1.5206354794
   31      H      -3.0619183162    -3.2993910764    -0.7200522506
   32      H      -4.5029997279    -2.7312046090    -1.5174259625
   33      C      -4.3132426569     2.3390919598    -1.4788331154
   34      H      -4.9868590760     2.1409641777    -2.3184937212
   35      H      -3.7256994288     3.2127406372    -1.7704760953
   36      C       2.8657184924     0.8655897377     0.7003998426
   37      C      -2.8704164292    -3.1480807399    -2.8563272173
   38      H      -3.2428473912    -2.5506884292    -3.6887535649
   39      H      -3.1705821710    -4.1817593851    -3.0304968993
   40      H      -1.7807423853    -3.1081013123    -2.8795495500
   41      C      -5.1374407094     2.6738297638    -0.2373228585
   42      H      -5.7921486391     3.5258021616    -0.4231934563
   43      H      -5.7641266929     1.8329863576     0.0604622742
   44      H      -4.4923101060     2.9236260436     0.6056996547
   45      C       3.4995883985     2.2366409775     0.9886546973
   46      H       2.7707244356     3.0348263961     0.8461307266
   47      H       3.8675881434     2.2956000339     2.0135540035
   48      H       4.3436354322     2.4309877093     0.3254993013
   49      C       3.9078729512    -0.2479153062     0.8966600058
   50      H       3.4692606839    -1.2260901032     0.6984410289
   51      H       4.7592003753    -0.1203719162     0.2271163300
   52      H       4.2972905565    -0.2535179309     1.9149940593
   53      B      -5.2379406947    -0.3793191444    -2.1927657903
   54      C      -6.5114899866    -0.7312404684    -1.3687723473
   55      C      -6.4363781719    -0.9381991433     0.0142229059
   56      H      -5.4811726399    -0.8449404767     0.5193210265
   57      C      -7.5750937999    -1.2683689793     0.7316570681
   58      C      -8.8144439941    -1.3768766897     0.0627413511
   59      C      -8.9039163264    -1.1605088796    -1.2980564934
   60      H      -9.8615607638    -1.2428219238    -1.8003592899
   61      C      -7.7598492416    -0.8461039717    -2.0304746518
   62      C      -7.8082333023    -1.5615311301     2.1498304155
   63      C      -7.0332806818    -1.6270667602     3.2772164943
   64      H      -5.9688274632    -1.4298226356     3.2535284632
   65      C      -9.1846999103    -1.8368660379     2.2726520677
   66      C      -9.8234896279    -2.1747618127     3.4597437014
   67      C      -9.8404425526    -1.7375099260     1.0332620986
   68      C     -11.1871479108    -1.9836493170     0.9694411218
   69      H     -11.7382560600    -1.9235342250     0.0385723427
   70      C      -7.6538281112    -1.9657995669     4.5043856902
   71      H      -7.0395900451    -2.0169020569     5.3936704990
   72      C      -8.9995367886    -2.2329746219     4.6088069822
   73      H      -9.4262185360    -2.4895690323     5.5706004766
   74      C     -11.2157851775    -2.4234361614     3.3733536417
   75      H     -11.7739961169    -2.6910101728     4.2620794401
   76      C     -11.8635993721    -2.3282417594     2.1628040090
   77      H     -12.9270188103    -2.5243526046     2.1174778659
   78      C      -5.3269858271    -0.2513671138    -3.7449900521
   79      C      -4.1762045957    -0.0162695650    -4.5068040215
   80      H      -3.2148070373     0.0802855913    -4.0154607946
   81      C      -4.2636938008     0.0902527232    -5.8844800499
   82      C      -5.5198004173    -0.0296854753    -6.5189611064
   83      C      -6.6627138660    -0.2565769336    -5.7794056918
   84      H      -7.6234533005    -0.3437231145    -6.2746092719
   85      C      -6.5807091525    -0.3741794470    -4.3920068728
   86      C      -3.2576270049     0.3223658256    -6.9272272596
   87      C      -1.9013860257     0.5153112090    -6.9586813680
   88      H      -1.3022062069     0.5195139592    -6.0564474372
   89      C      -3.9571886358     0.3347114948    -8.1500562498
   90      C      -3.3715615997     0.5300470890    -9.3968485248
   91      C      -5.3341102381     0.1261311908    -7.9587073332
   92      C      -6.1623878131     0.1121541475    -9.0516183493
   93      H      -7.2307038358    -0.0429226951    -8.9602402835
   94      C      -1.2738177639     0.7151154686    -8.2126885172
   95      H      -0.2025845299     0.8666571122    -8.2334260586
   96      C      -1.9701590281     0.7254565857    -9.3990534379
   97      H      -1.4450331264     0.8833810282   -10.3331832482
   98      C      -4.2448443105     0.5120187717   -10.5124290107
   99      H      -3.8508335737     0.6586014708   -11.5107828097
  100      C      -5.5935016718     0.3089407878   -10.3319391427
  101      H      -6.2455129436     0.2990834861   -11.1958108641
  102      B      -7.8660197941    -0.6435569179    -3.5671104297
  103      C      -9.2601334314    -0.7241076993    -4.2960641117
  104      C      -9.9779130129     0.4449501747    -4.5884864702
  105      C     -11.1943570062     0.3627439820    -5.2549882061
  106      H     -11.7506640547     1.2635899873    -5.4905387257
  107      C     -11.7124404465    -0.8682036659    -5.6210029000
  108      C     -11.0142559184    -2.0257743549    -5.3286372944
  109      H     -11.4301421815    -2.9836442657    -5.6227694724
  110      C      -9.7869269403    -1.9645954477    -4.6788780686
  111      N     -12.9558248559    -0.9432050670    -6.3068578926
  112      C     -12.9568322570    -0.9765395169    -7.6960097640
  113      C     -14.1359730012    -0.9779085917    -5.5740983848
  114      C     -15.3775518780    -1.0163818882    -6.2195764851
  115      C     -16.5266273331    -1.0433721141    -5.4358330310
  116      H     -17.4922762010    -1.0681496207    -5.9260759939
  117      C     -16.4870758902    -1.0370914117    -4.0533833348
  118      H     -17.4035212516    -1.0571818706    -3.4792143049
  119      C     -15.2519834633    -1.0052186350    -3.4257338160
  120      H     -15.1850643009    -1.0013099140    -2.3454378145
  121      C     -14.0910007349    -0.9771894645    -4.1741254015
  122      H     -13.1386405611    -0.9524740238    -3.6640820567
  123      C     -14.1594607712    -1.0187725708    -8.4104775054
  124      C     -14.0999009044    -1.0481400347    -9.8004979199
  125      H     -15.0248063734    -1.0776474637   -10.3632119100
  126      C     -12.9053096919    -1.0389526052   -10.4974732498
  127      H     -12.9019001526    -1.0632261273   -11.5788709359
  128      C     -11.7208614448    -0.9972767220    -9.7797520260
  129      H     -10.7676293778    -0.9892327384   -10.2926079923
  130      C     -11.7444196315    -0.9648669175    -8.3989181210
  131      H     -10.8078922104    -0.9309839269    -7.8614351820
  132      C      -9.0280382785    -3.2477146100    -4.4582655494
  133      H      -9.7057239730    -4.0107115021    -4.0657254637
  134      H      -8.2582269561    -3.1144336551    -3.6937894565
  135      C      -9.4884995402     1.7955827418    -4.1396669043
  136      H      -9.7324447612     2.5437529295    -4.8980067534
  137      H      -8.3982110006     1.8013205262    -4.0555891176
  138      C     -15.5190068574    -1.0257747252    -7.7334580084
  139      C     -10.1073741981     2.2066893557    -2.8051265214
  140      H      -9.8555522181     1.4947444836    -2.0185786889
  141      H      -9.7508827682     3.1885944476    -2.4925482530
  142      H     -11.1949915336     2.2517540778    -2.8758528660
  143      C      -8.3829261659    -3.7597560546    -5.7447901311
  144      H      -7.6681096837    -3.0383526824    -6.1419124705
  145      H      -9.1334293513    -3.9416798410    -6.5150865856
  146      H      -7.8503099031    -4.6949156249    -5.5704023777
  147      C     -16.2880142375    -2.2885670416    -8.1613463921
  148      H     -15.7488308682    -3.1905999839    -7.8721172134
  149      H     -16.4345245284    -2.3163773828    -9.2418070095
  150      H     -17.2770390260    -2.3263604577    -7.7031596140
  151      C     -16.3046101019     0.2223360104    -8.1736153929
  152      H     -15.7772486234     1.1342717325    -7.8936419189
  153      H     -16.4505647184     0.2367692563    -9.2546653196
  154      H     -17.2930703290     0.2504571410    -7.7130659008
 ----------------------------------------------------------------

   14   -3317.8093496133      6.11e-10  Convergence criterion met
 Total energy in the final basis set =    -3317.8093496133
 Final energy is   -3317.80934961328
 **  OPTIMIZATION CONVERGED  **

                    Orbital Energies (a.u.)
 --------------------------------------------------------------

 Alpha MOs
 -- Occupied --
-14.675 -14.675 -10.492 -10.492 -10.492 -10.491 -10.485 -10.485
-10.468 -10.468 -10.467 -10.467 -10.466 -10.466 -10.466 -10.466
-10.466 -10.466 -10.465 -10.465 -10.464 -10.464 -10.463 -10.463
-10.463 -10.463 -10.462 -10.462 -10.460 -10.460 -10.460 -10.460
-10.459 -10.458 -10.457 -10.457 -10.457 -10.456 -10.456 -10.456
-10.449 -10.449 -10.449 -10.449 -10.449 -10.449 -10.444 -10.444
-10.443 -10.443 -10.443 -10.442 -10.442 -10.442 -10.442 -10.442
-10.442 -10.442 -10.440 -10.439 -10.439 -10.439 -10.439 -10.439
-10.438 -10.438 -10.438 -10.438 -10.438 -10.437 -10.435 -10.435
-10.435 -10.434 -10.433 -10.432 -10.423 -10.423 -10.423 -10.423
-10.423 -10.422 -10.422 -10.422  -6.956  -6.954  -1.088  -1.087
 -1.019  -1.018  -0.973  -0.972  -0.965  -0.962  -0.957  -0.957
 -0.951  -0.950  -0.935  -0.935  -0.912  -0.907  -0.907  -0.904
 -0.895  -0.894  -0.871  -0.869  -0.858  -0.857  -0.849  -0.849
 -0.848  -0.848  -0.834  -0.834  -0.828  -0.826  -0.822  -0.815
 -0.815  -0.814  -0.814  -0.808  -0.806  -0.805  -0.790  -0.789
 -0.767  -0.766  -0.738  -0.733  -0.729  -0.723  -0.722  -0.721
 -0.719  -0.718  -0.707  -0.707  -0.706  -0.706  -0.693  -0.691
 -0.688  -0.681  -0.675  -0.668  -0.668  -0.668  -0.652  -0.651
 -0.639  -0.637  -0.635  -0.635  -0.614  -0.614  -0.614  -0.614
 -0.598  -0.597  -0.593  -0.590  -0.587  -0.586  -0.585  -0.577
 -0.576  -0.561  -0.560  -0.555  -0.549  -0.545  -0.535  -0.534
 -0.533  -0.531  -0.530  -0.527  -0.523  -0.522  -0.522  -0.519
 -0.514  -0.512  -0.505  -0.504  -0.504  -0.503  -0.501  -0.497
 -0.497  -0.496  -0.495  -0.494  -0.492  -0.489  -0.489  -0.489
 -0.487  -0.487  -0.487  -0.485  -0.479  -0.479  -0.479  -0.477
 -0.477  -0.475  -0.475  -0.474  -0.472  -0.469  -0.463  -0.460
 -0.456  -0.455  -0.450  -0.449  -0.447  -0.445  -0.444  -0.442
 -0.439  -0.438  -0.436  -0.436  -0.435  -0.429  -0.428  -0.428
 -0.428  -0.425  -0.424  -0.424  -0.421  -0.420  -0.414  -0.414
 -0.410  -0.406  -0.406  -0.405  -0.400  -0.399  -0.398  -0.397
 -0.397  -0.396  -0.395  -0.395  -0.394  -0.392  -0.392  -0.391
 -0.389  -0.387  -0.383  -0.377  -0.376  -0.372  -0.371  -0.370
 -0.368  -0.366  -0.364  -0.364  -0.358  -0.354  -0.351  -0.345
 -0.322  -0.317  -0.298  -0.298  -0.297  -0.296  -0.288  -0.288
 -0.286  -0.282  -0.282  -0.282  -0.281  -0.279  -0.279  -0.264
 -0.261  -0.258  -0.221  -0.221

          Ground-State Mulliken Net Atomic Charges

     Atom                 Charge (a.u.)
  ----------------------------------------
      1 N                    -0.719448
      2 C                     0.313506
      3 C                     0.308087
      4 C                     0.135752
      5 C                    -0.303732
      6 H                     0.222053
      7 C                    -0.245045
      8 H                     0.224928
      9 C                    -0.245827
     10 H                     0.228170
     11 C                    -0.319497
     12 H                     0.256855
     13 C                     0.137929
     14 C                    -0.303486
     15 H                     0.222178
     16 C                    -0.244642
     17 H                     0.224679
     18 C                    -0.245319
     19 H                     0.224478
     20 C                    -0.315362
     21 H                     0.257636
     22 C                     0.186429
     23 C                    -0.310006
     24 H                     0.236122
     25 C                    -0.294095
     26 H                     0.236877
     27 C                     0.060377
     28 C                     0.058203
     29 C                    -0.216139
     30 C                    -0.555964
     31 H                     0.241901
     32 H                     0.255405
     33 C                    -0.555351
     34 H                     0.258077
     35 H                     0.242035
     36 C                    -0.204253
     37 C                    -0.652349
     38 H                     0.239770
     39 H                     0.226650
     40 H                     0.222041
     41 C                    -0.650936
     42 H                     0.225743
     43 H                     0.239904
     44 H                     0.221795
     45 C                    -0.606848
     46 H                     0.234672
     47 H                     0.222105
     48 H                     0.221727
     49 C                    -0.611714
     50 H                     0.235087
     51 H                     0.222512
     52 H                     0.222322
     53 B                     0.667914
     54 C                    -0.151292
     55 C                    -0.400552
     56 H                     0.237925
     57 C                     0.104179
     58 C                     0.079152
     59 C                    -0.387169
     60 H                     0.237724
     61 C                    -0.152454
     62 C                     0.189379
     63 C                    -0.391522
     64 H                     0.235936
     65 C                    -0.063831
     66 C                     0.238292
     67 C                     0.188912
     68 C                    -0.381987
     69 H                     0.234809
     70 C                    -0.218050
     71 H                     0.243581
     72 C                    -0.343884
     73 H                     0.239476
     74 C                    -0.339522
     75 H                     0.239214
     76 C                    -0.220886
     77 H                     0.244010
     78 C                    -0.150559
     79 C                    -0.395661
     80 H                     0.243298
     81 C                     0.103276
     82 C                     0.079591
     83 C                    -0.386015
     84 H                     0.237326
     85 C                    -0.152389
     86 C                     0.190583
     87 C                    -0.393778
     88 H                     0.235884
     89 C                    -0.064715
     90 C                     0.236850
     91 C                     0.189901
     92 C                    -0.382707
     93 H                     0.233988
     94 C                    -0.217665
     95 H                     0.242318
     96 C                    -0.343444
     97 H                     0.239557
     98 C                    -0.338819
     99 H                     0.239146
    100 C                    -0.220244
    101 H                     0.243782
    102 B                     0.671830
    103 C                    -0.227977
    104 C                     0.059796
    105 C                    -0.301991
    106 H                     0.236213
    107 C                     0.191765
    108 C                    -0.300484
    109 H                     0.237582
    110 C                     0.060962
    111 N                    -0.720102
    112 C                     0.311668
    113 C                     0.312559
    114 C                     0.135167
    115 C                    -0.303033
    116 H                     0.222227
    117 C                    -0.245293
    118 H                     0.224990
    119 C                    -0.245030
    120 H                     0.227006
    121 C                    -0.317523
    122 H                     0.255150
    123 C                     0.135346
    124 C                    -0.302863
    125 H                     0.222191
    126 C                    -0.245576
    127 H                     0.224938
    128 C                    -0.243995
    129 H                     0.225714
    130 C                    -0.316302
    131 H                     0.255091
    132 C                    -0.554209
    133 H                     0.242053
    134 H                     0.258291
    135 C                    -0.554580
    136 H                     0.242280
    137 H                     0.257038
    138 C                    -0.205768
    139 C                    -0.651540
    140 H                     0.238018
    141 H                     0.226362
    142 H                     0.222243
    143 C                    -0.648748
    144 H                     0.233856
    145 H                     0.221679
    146 H                     0.227600
    147 C                    -0.610013
    148 H                     0.235238
    149 H                     0.221861
    150 H                     0.222403
    151 C                    -0.607147
    152 H                     0.234528
    153 H                     0.221572
    154 H                     0.222108
  ----------------------------------------
  Sum of atomic charges =     0.000000

                    Cartesian Multipole Moments
 -----------------------------------------------------------------
    Charge (ESU x 10^10)
                 0.0000
    Dipole Moment (Debye)
         X      -0.2672      Y      -0.5302      Z       0.1868
       Tot       0.6224
    Quadrupole Moments (Debye-Ang)
        XX    -465.9443     XY      10.5590     YY    -506.3664
        XZ     -20.8881     YZ     -11.2763     ZZ    -437.7124

 Total job time:  43845.61s(wall), 163918.38s(cpu)
        *  Thank you very much for using Q-Chem.  Have a nice day.  *
