 Q-Chem 5.1, Q-Chem, Inc., Pleasanton, CA (2018)
 Q-Chem 5.1.1 for Intel X86 EM64T Linux

User input:
--------------------------------------------------------------
$rem
threads 4
jobtype	opt
method PBEh-3c
basis def2-mSVP
mem_static	1024
mem_total	4000
sym_ignore	true
scf_convergence	9
solvent_method	pcm
$end

$molecule
read gsopt.mol
$end

$solvent
dielectric	2.03
$end

$pcm
theory iefpcm
$end
--------------------------------------------------------------

   17   -3317.8061179432      5.83e-10  Convergence criterion met
 Total energy in the final basis set =    -3317.8061179432
   14   -3317.8064323222      9.61e-10  Convergence criterion met
 Total energy in the final basis set =    -3317.8064323222
   14   -3317.8056154468      9.26e-10  Convergence criterion met
 Total energy in the final basis set =    -3317.8056154468
   14   -3317.8059813227      8.34e-10  Convergence criterion met
 Total energy in the final basis set =    -3317.8059813227
   14   -3317.8063686526      6.58e-10  Convergence criterion met
 Total energy in the final basis set =    -3317.8063686526
   14   -3317.8063868491      7.79e-10  Convergence criterion met
 Total energy in the final basis set =    -3317.8063868491
   14   -3317.8059922295      7.68e-10  Convergence criterion met
 Total energy in the final basis set =    -3317.8059922295
   14   -3317.8062451457      6.70e-10  Convergence criterion met
   14   -3317.8064164952      5.26e-10  Convergence criterion met
 Total energy in the final basis set =    -3317.8064164952
   14   -3317.8064375636      5.33e-10  Convergence criterion met
 Total energy in the final basis set =    -3317.8064375636
   14   -3317.8064553719      5.84e-10  Convergence criterion met
 Total energy in the final basis set =    -3317.8064553719
   14   -3317.8064605661      5.24e-10  Convergence criterion met
 Total energy in the final basis set =    -3317.8064605661
   14   -3317.8064518957      5.31e-10  Convergence criterion met
 Total energy in the final basis set =    -3317.8064518957
   14   -3317.8064478278      5.23e-10  Convergence criterion met
 Total energy in the final basis set =    -3317.8064478278

             Standard Nuclear Orientation (Angstroms)
    I     Atom           X                Y                Z
 ----------------------------------------------------------------
    1      N       0.0710405060     0.5262639437    -0.1027555302
    2      C       0.3886503252     0.4939442033     1.2505048941
    3      C       1.0476209968     0.6778228882    -1.0805312020
    4      C       1.7122551928     0.6420311257     1.6772116385
    5      C       1.9673110038     0.6003105317     3.0443491726
    6      H       2.9870725675     0.7153374967     3.3904899545
    7      C       0.9674199796     0.4188388879     3.9834720416
    8      H       1.2067231516     0.3914355873     5.0378542777
    9      C      -0.3398457248     0.2766566923     3.5462412742
   10      H      -1.1452650740     0.1367342273     4.2556464989
   11      C      -0.6280960975     0.3146342636     2.1962893205
   12      H      -1.6532751270     0.2046455214     1.8720038145
   13      C       2.3922166606     0.8359643955    -0.7314720816
   14      C       3.3237039510     0.9865145813    -1.7548612402
   15      H       4.3678089182     1.1140729638    -1.4970990795
   16      C       2.9712140736     0.9838556977    -3.0925083712
   17      H       3.7256858877     1.1040895308    -3.8580918216
   18      C       1.6358078296     0.8244870006    -3.4255616164
   19      H       1.3242270727     0.8177149472    -4.4625793372
   20      C       0.6858909421     0.6728347236    -2.4352918238
   21      H      -0.3489030177     0.5518433954    -2.7220649213
   22      C      -1.2700840215     0.3030348435    -0.5197501557
   23      C      -2.1128812473     1.3760309463    -0.7640200463
   24      H      -1.7537272229     2.3842018742    -0.5897986427
   25      C      -1.7184302745    -0.9891030498    -0.7348889447
   26      H      -1.0512184316    -1.8214506707    -0.5381111413
   27      C      -2.9976774748    -1.2227556048    -1.2280944458
   28      C      -3.3947632289     1.1648724013    -1.2582029351
   29      C      -3.8410183087    -0.1407461240    -1.5081639155
   30      C      -3.4158067236    -2.6411357913    -1.5253693356
   31      H      -3.0644047863    -3.2986849817    -0.7258604084
   32      H      -4.5055561477    -2.7280832111    -1.5212576152
   33      C      -4.3067428409     2.3427126012    -1.4831542180
   34      H      -4.9785769460     2.1465456472    -2.3246900182
   35      H      -3.7170382865     3.2156306941    -1.7727095796
   36      C       2.8638132623     0.8609901233     0.7110859457
   37      C      -2.8744585407    -3.1449374660    -2.8621120386
   38      H      -3.2478290557    -2.5470257482    -3.6937086331
   39      H      -3.1747137278    -4.1784871953    -3.0368625608
   40      H      -1.7848312310    -3.1048390649    -2.8866594299
   41      C      -5.1333712530     2.6775887846    -0.2432903263
   42      H      -5.7858912337     3.5311553701    -0.4295228370
   43      H      -5.7626186394     1.8377352452     0.0518124297
   44      H      -4.4898937924     2.9248469959     0.6017179425
   45      C       3.4936376784     2.2344837435     0.9967499396
   46      H       2.7627837795     3.0302801401     0.8514333912
   47      H       3.8602620224     2.2969677911     2.0219860946
   48      H       4.3377863679     2.4295954999     0.3339019740
   49      C       3.9083629095    -0.2491067065     0.9136497600
   50      H       3.4729932797    -1.2289910197     0.7170067872
   51      H       4.7613382052    -0.1213403884     0.2462022177
   52      H       4.2953183829    -0.2509377491     1.9329528965
   53      B      -5.2361834889    -0.3733547060    -2.1980523300
   54      C      -6.5101952704    -0.7247085859    -1.3746110811
   55      C      -6.4352787456    -0.9350824948     0.0078381184
   56      H      -5.4796694507    -0.8444122036     0.5126828051
   57      C      -7.5741452032    -1.2662046110     0.7244357967
   58      C      -8.8137612082    -1.3713349335     0.0556017093
   59      C      -8.9030917528    -1.1508464990    -1.3044850605
   60      H      -9.8606012106    -1.2304688636    -1.8074286744
   61      C      -7.7586989653    -0.8364493465    -2.0363612344
   62      C      -7.8068752922    -1.5650035473     2.1414434309
   63      C      -7.0312796217    -1.6364516048     3.2678744660
   64      H      -5.9667361439    -1.4397733377     3.2443247858
   65      C      -9.1833178457    -1.8403536571     2.2637895725
   66      C      -9.8213310463    -2.1842512548     3.4495000123
   67      C      -9.8395489152    -1.7354346122     1.0251504925
   68      C     -11.1861418602    -1.9817844648     0.9610338828
   69      H     -11.7378961080    -1.9180893504     0.0308034121
   70      C      -7.6510505082    -1.9808774315     4.4937322794
   71      H      -7.0363526388    -2.0365430669     5.3824211392
   72      C      -8.9966451240    -2.2482082545     4.5975843210
   73      H      -9.4226147954    -2.5095990299     5.5583955366
   74      C     -11.2134606677    -2.4331526669     3.3626265391
   75      H     -11.7711349428    -2.7057333265     4.2501749762
   76      C     -11.8618551654    -2.3323144123     2.1530076302
   77      H     -12.9251673082    -2.5288151605     2.1071485088
   78      C      -5.3251570834    -0.2427088795    -3.7499563141
   79      C      -4.1740125048    -0.0086929784    -4.5114633659
   80      H      -3.2128327969     0.0860097961    -4.0193523942
   81      C      -4.2609867037     0.0985402054    -5.8890221455
   82      C      -5.5170779115    -0.0194423703    -6.5237850270
   83      C      -6.6603817032    -0.2447850516    -5.7845058249
   84      H      -7.6214809336    -0.3303607528    -6.2792739008
   85      C      -6.5788813480    -0.3632730057    -4.3971924289
   86      C      -3.2543587282     0.3292613541    -6.9314950576
   87      C      -1.8979344448     0.5203714050    -6.9625754278
   88      H      -1.2992026506     0.5238434068    -6.0600344771
   89      C      -3.9534802122     0.3424063737    -8.1545012176
   90      C      -3.3672214276     0.5365863666    -9.4010805495
   91      C      -5.3307083365     0.1358730720    -7.9634772021
   92      C      -6.1586071009     0.1227572726    -9.0565583297
   93      H      -7.2271845709    -0.0305267119    -8.9653274765
   94      C      -1.2697168000     0.7190763337    -8.2163358019
   95      H      -0.1982732786     0.8690809944    -8.2368535238
   96      C      -1.9656438246     0.7300869911    -9.4028233776
   97      H      -1.4399588056     0.8870287018   -10.3367852679
   98      C      -4.2402252396     0.5194224104   -10.5167575509
   99      H      -3.8459138763     0.6652198234   -11.5150840772
  100      C      -5.5891014639     0.3182480395   -10.3366889220
  101      H      -6.2407442339     0.3090984440   -11.2008487598
  102      B      -7.8644380497    -0.6326188698    -3.5728483834
  103      C      -9.2584789349    -0.7144700301    -4.3017158732
  104      C      -9.9768761197     0.4534891504    -4.5967942496
  105      C     -11.1943409162     0.3689062506    -5.2611050619
  106      H     -11.7513212759     1.2687747706    -5.4986575771
  107      C     -11.7133184067    -0.8631567100    -5.6218130093
  108      C     -11.0141326866    -2.0195738242    -5.3272366829
  109      H     -11.4307144447    -2.9783250978    -5.6174164115
  110      C      -9.7855550779    -1.9561817491    -4.6802474215
  111      N     -12.9585386284    -0.9409445885    -6.3037520546
  112      C     -12.9635230125    -0.9826017273    -7.6926928160
  113      C     -14.1364448764    -0.9738823301    -5.5673017723
  114      C     -15.3796838844    -1.0195306297    -6.2088728000
  115      C     -16.5261491846    -1.0450335827    -5.4214682707
  116      H     -17.4931359121    -1.0751585395    -5.9086970203
  117      C     -16.4826737032    -1.0302694312    -4.0393256390
  118      H     -17.3973739141    -1.0493273771    -3.4623910251
  119      C     -15.2459195915    -0.9906372852    -3.4156507406
  120      H     -15.1758350087    -0.9794141735    -2.3356283293
  121      C     -14.0873969772    -0.9640192054    -4.1676027507
  122      H     -13.1335188499    -0.9330973678    -3.6608284259
  123      C     -14.1680148550    -1.0319268711    -8.4033786921
  124      C     -14.1121899957    -1.0696080997    -9.7932819220
  125      H     -15.0384422450    -1.1046464712   -10.3534759626
  126      C     -12.9196887775    -1.0618353076   -10.4935775858
  127      H     -12.9192127587    -1.0926987158   -11.5747776478
  128      C     -11.7334883622    -1.0127446190    -9.7795011948
  129      H     -10.7818089222    -1.0055468330   -10.2952028260
  130      C     -11.7532023749    -0.9722547013    -8.3989497519
  131      H     -10.8154515270    -0.9329314144    -7.8640230433
  132      C      -9.0255629271    -3.2383722476    -4.4579446583
  133      H      -9.7027733695    -4.0017356619    -4.0652547423
  134      H      -8.2565548532    -3.1037639353    -3.6929110864
  135      C      -9.4873820843     1.8055474633    -4.1524432284
  136      H      -9.7329068458     2.5515684180    -4.9124187027
  137      H      -8.3969568607     1.8120287310    -4.0704361908
  138      C     -15.5255530625    -1.0372518066    -7.7223245629
  139      C     -10.1041622505     2.2198773874    -2.8179196020
  140      H      -9.8504567901     1.5103545466    -2.0298078090
  141      H      -9.7479472116     3.2029050934    -2.5085911289
  142      H     -11.1919323336     2.2638752690    -2.8867352873
  143      C      -8.3788955990    -3.7505206469    -5.7436279752
  144      H      -7.6636925853    -3.0291127703    -6.1399882137
  145      H      -9.1283968043    -3.9326531915    -6.5148459693
  146      H      -7.8462292709    -4.6855357554    -5.5686301149
  147      C     -16.2942173524    -2.3032576975    -8.1412115653
  148      H     -15.7526355958    -3.2029348529    -7.8493484516
  149      H     -16.4446110174    -2.3370643923    -9.2209258542
  150      H     -17.2815887615    -2.3404879826    -7.6794154539
  151      C     -16.3137345213     0.2078455073    -8.1665737631
  152      H     -15.7862047278     1.1215572439    -7.8929613140
  153      H     -16.4630993891     0.2168036508    -9.2472194728
  154      H     -17.3007079291     0.2377543674    -7.7029449870
 ----------------------------------------------------------------

   14   -3317.8064490937      5.27e-10  Convergence criterion met
 Total energy in the final basis set =    -3317.8064490937
 Final energy is   -3317.80644909367
 **  OPTIMIZATION CONVERGED  **

                    Orbital Energies (a.u.)
 --------------------------------------------------------------

 Alpha MOs
 -- Occupied --
-14.675 -14.674 -10.491 -10.491 -10.491 -10.490 -10.485 -10.484
-10.468 -10.468 -10.467 -10.467 -10.466 -10.466 -10.466 -10.466
-10.466 -10.466 -10.465 -10.465 -10.464 -10.464 -10.463 -10.463
-10.463 -10.463 -10.462 -10.462 -10.460 -10.460 -10.460 -10.460
-10.459 -10.458 -10.457 -10.457 -10.457 -10.456 -10.456 -10.456
-10.449 -10.449 -10.449 -10.449 -10.449 -10.449 -10.444 -10.443
-10.443 -10.443 -10.442 -10.442 -10.442 -10.442 -10.442 -10.442
-10.442 -10.441 -10.440 -10.439 -10.439 -10.438 -10.438 -10.438
-10.438 -10.438 -10.438 -10.438 -10.437 -10.437 -10.435 -10.434
-10.434 -10.434 -10.433 -10.432 -10.423 -10.423 -10.423 -10.423
-10.423 -10.422 -10.422 -10.422  -6.956  -6.954  -1.087  -1.087
 -1.019  -1.018  -0.972  -0.972  -0.965  -0.962  -0.957  -0.957
 -0.951  -0.950  -0.935  -0.935  -0.912  -0.907  -0.907  -0.904
 -0.895  -0.894  -0.871  -0.869  -0.858  -0.857  -0.849  -0.849
 -0.849  -0.848  -0.834  -0.833  -0.828  -0.826  -0.822  -0.815
 -0.815  -0.813  -0.813  -0.808  -0.806  -0.805  -0.790  -0.789
 -0.767  -0.766  -0.738  -0.733  -0.729  -0.723  -0.722  -0.721
 -0.719  -0.718  -0.707  -0.707  -0.706  -0.706  -0.692  -0.691
 -0.688  -0.681  -0.674  -0.668  -0.668  -0.668  -0.652  -0.651
 -0.639  -0.637  -0.635  -0.635  -0.614  -0.614  -0.613  -0.613
 -0.598  -0.597  -0.593  -0.590  -0.587  -0.586  -0.586  -0.578
 -0.576  -0.561  -0.560  -0.555  -0.549  -0.545  -0.534  -0.534
 -0.533  -0.531  -0.530  -0.527  -0.523  -0.522  -0.522  -0.519
 -0.514  -0.512  -0.505  -0.505  -0.504  -0.503  -0.501  -0.497
 -0.496  -0.496  -0.495  -0.494  -0.492  -0.489  -0.488  -0.488
 -0.488  -0.487  -0.486  -0.486  -0.479  -0.479  -0.479  -0.477
 -0.477  -0.475  -0.475  -0.474  -0.472  -0.469  -0.463  -0.460
 -0.456  -0.455  -0.449  -0.449  -0.447  -0.444  -0.444  -0.442
 -0.439  -0.438  -0.436  -0.436  -0.435  -0.429  -0.428  -0.428
 -0.428  -0.425  -0.424  -0.424  -0.421  -0.420  -0.414  -0.414
 -0.410  -0.406  -0.405  -0.405  -0.400  -0.399  -0.398  -0.397
 -0.397  -0.396  -0.395  -0.395  -0.394  -0.392  -0.392  -0.391
 -0.389  -0.387  -0.383  -0.376  -0.376  -0.372  -0.371  -0.370
 -0.367  -0.366  -0.364  -0.364  -0.358  -0.354  -0.351  -0.345
 -0.322  -0.316  -0.297  -0.297  -0.297  -0.296  -0.287  -0.287
 -0.286  -0.282  -0.282  -0.282  -0.281  -0.279  -0.278  -0.264
 -0.260  -0.258  -0.221  -0.220

          Ground-State Mulliken Net Atomic Charges

     Atom                 Charge (a.u.)
  ----------------------------------------
      1 N                    -0.719953
      2 C                     0.314133
      3 C                     0.308632
      4 C                     0.137081
      5 C                    -0.301707
      6 H                     0.219387
      7 C                    -0.242246
      8 H                     0.222516
      9 C                    -0.243519
     10 H                     0.225522
     11 C                    -0.317630
     12 H                     0.255502
     13 C                     0.139334
     14 C                    -0.301650
     15 H                     0.219517
     16 C                    -0.241918
     17 H                     0.222272
     18 C                    -0.242661
     19 H                     0.221322
     20 C                    -0.312960
     21 H                     0.255809
     22 C                     0.186212
     23 C                    -0.308658
     24 H                     0.234335
     25 C                    -0.292691
     26 H                     0.235166
     27 C                     0.060881
     28 C                     0.059199
     29 C                    -0.216192
     30 C                    -0.555772
     31 H                     0.240838
     32 H                     0.255350
     33 C                    -0.555292
     34 H                     0.257987
     35 H                     0.240966
     36 C                    -0.205319
     37 C                    -0.651481
     38 H                     0.240164
     39 H                     0.225937
     40 H                     0.221677
     41 C                    -0.649889
     42 H                     0.224965
     43 H                     0.240332
     44 H                     0.221356
     45 C                    -0.604790
     46 H                     0.234719
     47 H                     0.220922
     48 H                     0.220582
     49 C                    -0.610219
     50 H                     0.235269
     51 H                     0.221306
     52 H                     0.221189
     53 B                     0.668028
     54 C                    -0.151228
     55 C                    -0.400108
     56 H                     0.236501
     57 C                     0.105687
     58 C                     0.080654
     59 C                    -0.386855
     60 H                     0.236394
     61 C                    -0.152216
     62 C                     0.190924
     63 C                    -0.390534
     64 H                     0.233153
     65 C                    -0.063460
     66 C                     0.241007
     67 C                     0.190423
     68 C                    -0.381171
     69 H                     0.232123
     70 C                    -0.215690
     71 H                     0.241117
     72 C                    -0.342847
     73 H                     0.236683
     74 C                    -0.338461
     75 H                     0.236341
     76 C                    -0.218452
     77 H                     0.241557
     78 C                    -0.150488
     79 C                    -0.395084
     80 H                     0.241846
     81 C                     0.104697
     82 C                     0.081072
     83 C                    -0.385840
     84 H                     0.236040
     85 C                    -0.152110
     86 C                     0.191991
     87 C                    -0.392588
     88 H                     0.232993
     89 C                    -0.064357
     90 C                     0.239393
     91 C                     0.191336
     92 C                    -0.381721
     93 H                     0.231331
     94 C                    -0.215184
     95 H                     0.239831
     96 C                    -0.342270
     97 H                     0.236768
     98 C                    -0.337678
     99 H                     0.236389
    100 C                    -0.217927
    101 H                     0.241298
    102 B                     0.671684
    103 C                    -0.228209
    104 C                     0.060846
    105 C                    -0.300727
    106 H                     0.234510
    107 C                     0.191598
    108 C                    -0.299051
    109 H                     0.235937
    110 C                     0.061397
    111 N                    -0.720619
    112 C                     0.312411
    113 C                     0.312900
    114 C                     0.136719
    115 C                    -0.301210
    116 H                     0.219535
    117 C                    -0.242686
    118 H                     0.222640
    119 C                    -0.242489
    120 H                     0.224255
    121 C                    -0.315466
    122 H                     0.253622
    123 C                     0.136675
    124 C                    -0.300712
    125 H                     0.219262
    126 C                    -0.242563
    127 H                     0.222513
    128 C                    -0.241741
    129 H                     0.222984
    130 C                    -0.314462
    131 H                     0.253637
    132 C                    -0.554154
    133 H                     0.241119
    134 H                     0.258351
    135 C                    -0.554382
    136 H                     0.241295
    137 H                     0.256752
    138 C                    -0.206777
    139 C                    -0.650518
    140 H                     0.238302
    141 H                     0.225622
    142 H                     0.221848
    143 C                    -0.647631
    144 H                     0.234039
    145 H                     0.221280
    146 H                     0.226866
    147 C                    -0.608286
    148 H                     0.235403
    149 H                     0.220649
    150 H                     0.221203
    151 C                    -0.605276
    152 H                     0.234621
    153 H                     0.220400
    154 H                     0.220938
  ----------------------------------------
  Sum of atomic charges =     0.000000

                    Cartesian Multipole Moments
 -----------------------------------------------------------------
    Charge (ESU x 10^10)
                 0.0000
    Dipole Moment (Debye)
         X      -0.2610      Y      -0.5294      Z       0.1814
       Tot       0.6175
    Quadrupole Moments (Debye-Ang)
        XX    -467.7235     XY      10.4295     YY    -506.5070
        XZ     -20.8390     YZ     -11.0968     ZZ    -439.2510

 Total job time:  175095.41s(wall), 629544.62s(cpu)
        *  Thank you very much for using Q-Chem.  Have a nice day.  *
