 Q-Chem 5.1, Q-Chem, Inc., Pleasanton, CA (2018)
 Q-Chem 5.1.1 for Intel X86 EM64T Linux

User input:
--------------------------------------------------------------
$rem
threads 4
jobtype	opt
method PBEh-3c
basis def2-mSVP
mem_static	1024
mem_total	4000
sym_ignore	true
scf_convergence	9
solvent_method	pcm
$end

$molecule
read eth_preopt.mol
$end

$solvent
dielectric	4.33
$end

$pcm
theory iefpcm
heavypoints 194
hpoints     194
$end
--------------------------------------------------------------

   16   -3317.8187940698      9.31e-10  Convergence criterion met
 Total energy in the final basis set =    -3317.8187940698
   14   -3317.8187676733      9.18e-10  Convergence criterion met
 Total energy in the final basis set =    -3317.8187676733
   14   -3317.8187835721      9.04e-10  Convergence criterion met
 Total energy in the final basis set =    -3317.8187835721
   14   -3317.8187876799      8.79e-10  Convergence criterion met
 Total energy in the final basis set =    -3317.8187876799
   14   -3317.8187896606      8.64e-10  Convergence criterion met
 Total energy in the final basis set =    -3317.8187896606
   14   -3317.8187880192      8.76e-10  Convergence criterion met
 Total energy in the final basis set =    -3317.8187880192

             Standard Nuclear Orientation (Angstroms)
    I     Atom           X                Y                Z
 ----------------------------------------------------------------
    1      N       0.0688560793     0.5435694833    -0.1098841389
    2      C       0.3941547405     0.5075269350     1.2413101696
    3      C       1.0391938674     0.7045794409    -1.0925012768
    4      C       1.7200192981     0.6583910888     1.6614188770
    5      C       1.9833762315     0.6118098994     3.0273057167
    6      H       3.0048558446     0.7275456691     3.3685577811
    7      C       0.9888629019     0.4232768445     3.9715429150
    8      H       1.2343312340     0.3920984508     5.0245261089
    9      C      -0.3209847708     0.2787461858     3.5411401561
   10      H      -1.1221779009     0.1331184991     4.2542685958
   11      C      -0.6168974760     0.3211830697     2.1924573934
   12      H      -1.6438585140     0.2084744302     1.8744980577
   13      C       2.3855799494     0.8660501830    -0.7501959739
   14      C       3.3110408806     1.0270046498    -1.7781086662
   15      H       4.3562932186     1.1574256704    -1.5260560230
   16      C       2.9504450131     1.0307300737    -3.1141551555
   17      H       3.7000926123     1.1586788930    -3.8833824178
   18      C       1.6133500761     0.8676627581    -3.4409359452
   19      H       1.2952253592     0.8657262942    -4.4760463502
   20      C       0.6695741278     0.7060953439    -2.4456352492
   21      H      -0.3661436089     0.5830429386    -2.7286081136
   22      C      -1.2734403921     0.3122695532    -0.5205065418
   23      C      -2.1239217350     1.3806865406    -0.7586825953
   24      H      -1.7716793926     2.3914560147    -0.5846787836
   25      C      -1.7137524206    -0.9828353421    -0.7352628113
   26      H      -1.0411747092    -1.8119154227    -0.5423917547
   27      C      -2.9938001610    -1.2237774792    -1.2234195869
   28      C      -3.4066524010     1.1616481230    -1.2477741818
   29      C      -3.8448494764    -0.1465702688    -1.4985284517
   30      C      -3.4048852351    -2.6444236510    -1.5196404624
   31      H      -3.0562295929    -3.2986984228    -0.7163502247
   32      H      -4.4943691459    -2.7351404204    -1.5228104953
   33      C      -4.3273571918     2.3338303776    -1.4670064575
   34      H      -5.0057016618     2.1323121939    -2.3021064525
   35      H      -3.7453128759     3.2098645971    -1.7623059358
   36      C       2.8660797118     0.8814298366     0.6896445813
   37      C      -2.8530258072    -3.1500155629    -2.8513926382
   38      H      -3.2188832386    -2.5520091692    -3.6863920178
   39      H      -3.1531561644    -4.1834613560    -3.0271293160
   40      H      -1.7631292188    -3.1113092878    -2.8665586497
   41      C      -5.1452403555     2.6657114959    -0.2205552809
   42      H      -5.8067566132     3.5129189289    -0.4041678221
   43      H      -5.7638346718     1.8209324878     0.0832604617
   44      H      -4.4959196858     2.9218213745     0.6174100897
   45      C       3.5017272376     2.2511928345     0.9801980572
   46      H       2.7731402611     3.0507101408     0.8424947443
   47      H       3.8732772050     2.3058370931     2.0040330008
   48      H       4.3441081532     2.4461515953     0.3151385637
   49      C       3.9089241439    -0.2326885571     0.8792922633
   50      H       3.4700104893    -1.2105939422     0.6794460101
   51      H       4.7581061251    -0.1021512925     0.2075926061
   52      H       4.3011579177    -0.2405477595     1.8965261836
   53      B      -5.2393884253    -0.3871291503    -2.1871520060
   54      C      -6.5130338144    -0.7396708533    -1.3632980663
   55      C      -6.4377722678    -0.9467312880     0.0197693916
   56      H      -5.4833997334    -0.8531876172     0.5263312330
   57      C      -7.5767187126    -1.2778613111     0.7369006182
   58      C      -8.8161406687    -1.3870437456     0.0676904472
   59      C      -8.9056604242    -1.1708687572    -1.2934306140
   60      H      -9.8637227725    -1.2541041099    -1.7947591234
   61      C      -7.7614094904    -0.8555250340    -2.0253904318
   62      C      -7.8097163744    -1.5709988123     2.1551215519
   63      C      -7.0344173481    -1.6359665390     3.2827363975
   64      H      -5.9700028934    -1.4382966336     3.2590791525
   65      C      -9.1863159749    -1.8466733772     2.2776767229
   66      C      -9.8252717029    -2.1842614091     3.4650716354
   67      C      -9.8422740555    -1.7476811771     1.0381503171
   68      C     -11.1893826239    -1.9935076886     0.9741288251
   69      H     -11.7405170282    -1.9331104559     0.0432456862
   70      C      -7.6553338849    -1.9746408627     4.5100753201
   71      H      -7.0410609540    -2.0253505428     5.3993950043
   72      C      -9.0013986330    -2.2420843829     4.6145721852
   73      H      -9.4284457989    -2.4984390764     5.5762994217
   74      C     -11.2178795518    -2.4329100283     3.3788965276
   75      H     -11.7758789512    -2.7001337468     4.2678958327
   76      C     -11.8658235864    -2.3377721519     2.1679503577
   77      H     -12.9293343014    -2.5335633693     2.1226382707
   78      C      -5.3274514824    -0.2631523291    -3.7399495918
   79      C      -4.1761180403    -0.0292891738    -4.5015335313
   80      H      -3.2144626430     0.0697295930    -4.0112044240
   81      C      -4.2629039940     0.0726447003    -5.8798682713
   82      C      -5.5186513098    -0.0504815409    -6.5149635233
   83      C      -6.6623674839    -0.2751388652    -5.7754301981
   84      H      -7.6220910387    -0.3641772463    -6.2722516336
   85      C      -6.5809586055    -0.3882427567    -4.3874875139
   86      C      -3.2561146880     0.3024255059    -6.9224913309
   87      C      -1.8996816272     0.4967286241    -6.9532497077
   88      H      -1.3010050426     0.5044208337    -6.0506433693
   89      C      -3.9550496215     0.3101458028    -8.1459254802
   90      C      -3.3685761973     0.5023206509    -9.3931059298
   91      C      -5.3321158833     0.1006821386    -7.9551515462
   92      C      -6.1599140624     0.0820824656    -9.0487952328
   93      H      -7.2281001050    -0.0743798878    -8.9578003171
   94      C      -1.2714857588     0.6933706412    -8.2077961761
   95      H      -0.2003689396     0.8460220558    -8.2280638178
   96      C      -1.9671088307     0.6993595597    -9.3950815655
   97      H      -1.4417484837     0.8550515668   -10.3294862277
   98      C      -4.2409935968     0.4798633273   -10.5096531076
   99      H      -3.8460401792     0.6238403396   -11.5080507646
  100      C      -5.5899220800     0.2755926965   -10.3294636315
  101      H      -6.2413217599     0.2620368497   -11.1937835936
  102      B      -7.8671463376    -0.6538122463    -3.5622637831
  103      C      -9.2612833516    -0.7302969311    -4.2917074200
  104      C      -9.9783649372     0.4408855407    -4.5773488233
  105      C     -11.1940844108     0.3634147774    -5.2459740384
  106      H     -11.7493738329     1.2663739382    -5.4760998524
  107      C     -11.7110839488    -0.8654843149    -5.6209033137
  108      C     -11.0138124687    -2.0253430947    -5.3353144573
  109      H     -11.4287105845    -2.9816306821    -5.6361439582
  110      C      -9.7874317624    -1.9683659774    -4.6829860971
  111      N     -12.9536694746    -0.9358089712    -6.3095473934
  112      C     -12.9525426902    -0.9551176343    -7.6989021554
  113      C     -14.1349803063    -0.9780424786    -5.5791544155
  114      C     -15.3758570030    -1.0096107615    -6.2270638761
  115      C     -16.5265721085    -1.0444591923    -5.4454347630
  116      H     -17.4915456726    -1.0640451493    -5.9373228872
  117      C     -16.4890282456    -1.0531298405    -4.0625144059
  118      H     -17.4064884276    -1.0794186974    -3.4900524153
  119      C     -15.2546407262    -1.0285548552    -3.4323013242
  120      H     -15.1890972419    -1.0369899078    -2.3518924055
  121      C     -14.0922331556    -0.9926162994    -4.1788452969
  122      H     -13.1410456570    -0.9741778106    -3.6661833666
  123      C     -14.1542632154    -0.9908999150    -8.4158676819
  124      C     -14.0926545161    -1.0063836674    -9.8063372488
  125      H     -15.0166283967    -1.0308338806   -10.3708602426
  126      C     -12.8965203160    -0.9893957104   -10.5013788252
  127      H     -12.8914479867    -1.0026342154   -11.5830527308
  128      C     -11.7128157111    -0.9540793550    -9.7813240591
  129      H     -10.7585602171    -0.9397622270   -10.2922511481
  130      C     -11.7387377578    -0.9358631572    -8.3998855770
  131      H     -10.8025081731    -0.9071258298    -7.8613886869
  132      C      -9.0298323820    -3.2531029649    -4.4673648584
  133      H      -9.7056834262    -4.0136660885    -4.0671448672
  134      H      -8.2521147783    -3.1202169227    -3.7107431704
  135      C      -9.4883817527     1.7885537021    -4.1201268556
  136      H      -9.7262948821     2.5405388366    -4.8765156319
  137      H      -8.3985769189     1.7912537187    -4.0290214721
  138      C     -15.5150486042    -1.0050485270    -7.7412386795
  139      C     -10.1142298298     2.1957340588    -2.7876200370
  140      H      -9.8710562646     1.4782460455    -2.0032939111
  141      H      -9.7549968529     3.1743789797    -2.4679443664
  142      H     -11.2011386228     2.2464209680    -2.8656548064
  143      C      -8.3985141307    -3.7697965319    -5.7589243702
  144      H      -7.6893967835    -3.0490401729    -6.1674808867
  145      H      -9.1577419526    -3.9561777716    -6.5195540677
  146      H      -7.8631017446    -4.7036699072    -5.5860836632
  147      C     -16.2827192805    -2.2643660484    -8.1820051874
  148      H     -15.7440152711    -3.1690869637    -7.8996635192
  149      H     -16.4267725924    -2.2817975939    -9.2630349366
  150      H     -17.2728203017    -2.3057582135    -7.7264184126
  151      C     -16.3013508071     0.2460714604    -8.1715633177
  152      H     -15.7752872952     1.1564508135    -7.8835178207
  153      H     -16.4464710868     0.2686174046    -9.2525762477
  154      H     -17.2902876416     0.2684657786    -7.7117859997
 ----------------------------------------------------------------

   14   -3317.8187934430      8.58e-10  Convergence criterion met
 Total energy in the final basis set =    -3317.8187934430
 Final energy is   -3317.81879344298
 **  OPTIMIZATION CONVERGED  **

                    Orbital Energies (a.u.)
 --------------------------------------------------------------

 Alpha MOs
 -- Occupied --
-14.677 -14.676 -10.494 -10.494 -10.494 -10.493 -10.485 -10.485
-10.469 -10.468 -10.468 -10.467 -10.467 -10.466 -10.466 -10.466
-10.466 -10.466 -10.466 -10.466 -10.465 -10.464 -10.463 -10.462
-10.462 -10.462 -10.462 -10.462 -10.460 -10.459 -10.459 -10.459
-10.459 -10.459 -10.457 -10.457 -10.457 -10.457 -10.457 -10.457
-10.451 -10.451 -10.451 -10.451 -10.449 -10.449 -10.444 -10.444
-10.444 -10.444 -10.444 -10.444 -10.444 -10.444 -10.444 -10.443
-10.443 -10.443 -10.441 -10.440 -10.440 -10.440 -10.440 -10.440
-10.439 -10.439 -10.438 -10.438 -10.438 -10.438 -10.436 -10.436
-10.436 -10.436 -10.433 -10.433 -10.423 -10.423 -10.423 -10.423
-10.423 -10.422 -10.422 -10.422  -6.957  -6.955  -1.089  -1.089
 -1.019  -1.019  -0.973  -0.973  -0.965  -0.963  -0.959  -0.959
 -0.952  -0.951  -0.935  -0.934  -0.912  -0.908  -0.908  -0.904
 -0.895  -0.894  -0.872  -0.869  -0.858  -0.858  -0.851  -0.851
 -0.848  -0.848  -0.836  -0.835  -0.829  -0.826  -0.822  -0.816
 -0.815  -0.815  -0.815  -0.808  -0.806  -0.806  -0.791  -0.790
 -0.767  -0.766  -0.738  -0.733  -0.728  -0.723  -0.723  -0.722
 -0.719  -0.718  -0.708  -0.708  -0.707  -0.707  -0.693  -0.691
 -0.689  -0.681  -0.675  -0.670  -0.669  -0.668  -0.652  -0.651
 -0.640  -0.638  -0.636  -0.635  -0.615  -0.615  -0.615  -0.615
 -0.598  -0.597  -0.592  -0.589  -0.588  -0.587  -0.585  -0.577
 -0.576  -0.562  -0.561  -0.555  -0.550  -0.545  -0.536  -0.536
 -0.534  -0.532  -0.530  -0.527  -0.524  -0.523  -0.523  -0.520
 -0.515  -0.512  -0.505  -0.504  -0.504  -0.503  -0.502  -0.498
 -0.497  -0.496  -0.496  -0.494  -0.492  -0.490  -0.489  -0.489
 -0.488  -0.488  -0.487  -0.485  -0.480  -0.480  -0.479  -0.478
 -0.478  -0.475  -0.475  -0.474  -0.473  -0.468  -0.463  -0.460
 -0.456  -0.455  -0.450  -0.450  -0.447  -0.445  -0.445  -0.441
 -0.439  -0.438  -0.437  -0.437  -0.436  -0.429  -0.429  -0.428
 -0.428  -0.425  -0.425  -0.424  -0.422  -0.420  -0.416  -0.416
 -0.410  -0.407  -0.406  -0.405  -0.400  -0.399  -0.398  -0.398
 -0.397  -0.396  -0.395  -0.395  -0.394  -0.393  -0.392  -0.392
 -0.389  -0.387  -0.384  -0.377  -0.377  -0.373  -0.372  -0.371
 -0.368  -0.367  -0.365  -0.365  -0.359  -0.355  -0.352  -0.345
 -0.323  -0.317  -0.300  -0.300  -0.298  -0.297  -0.290  -0.289
 -0.287  -0.284  -0.284  -0.283  -0.281  -0.280  -0.280  -0.265
 -0.261  -0.258  -0.223  -0.223

          Ground-State Mulliken Net Atomic Charges

     Atom                 Charge (a.u.)
  ----------------------------------------
      1 N                    -0.717760
      2 C                     0.311667
      3 C                     0.306109
      4 C                     0.130995
      5 C                    -0.310326
      6 H                     0.231251
      7 C                    -0.253654
      8 H                     0.232572
      9 C                    -0.253195
     10 H                     0.236641
     11 C                    -0.325731
     12 H                     0.261248
     13 C                     0.133245
     14 C                    -0.310094
     15 H                     0.231282
     16 C                    -0.253247
     17 H                     0.232374
     18 C                    -0.253630
     19 H                     0.234779
     20 C                    -0.322657
     21 H                     0.263243
     22 C                     0.187442
     23 C                    -0.314133
     24 H                     0.241410
     25 C                    -0.298403
     26 H                     0.242210
     27 C                     0.058451
     28 C                     0.055017
     29 C                    -0.215589
     30 C                    -0.556157
     31 H                     0.245168
     32 H                     0.255510
     33 C                    -0.555900
     34 H                     0.258353
     35 H                     0.245318
     36 C                    -0.200649
     37 C                    -0.655342
     38 H                     0.238389
     39 H                     0.228908
     40 H                     0.223352
     41 C                    -0.654225
     42 H                     0.228113
     43 H                     0.238618
     44 H                     0.223273
     45 C                    -0.613056
     46 H                     0.234034
     47 H                     0.225958
     48 H                     0.225718
     49 C                    -0.617570
     50 H                     0.234364
     51 H                     0.226571
     52 H                     0.226360
     53 B                     0.667408
     54 C                    -0.151793
     55 C                    -0.401661
     56 H                     0.242778
     57 C                     0.098983
     58 C                     0.074277
     59 C                    -0.388643
     60 H                     0.242650
     61 C                    -0.153135
     62 C                     0.184256
     63 C                    -0.394241
     64 H                     0.244830
     65 C                    -0.064928
     66 C                     0.229546
     67 C                     0.183820
     68 C                    -0.384966
     69 H                     0.243759
     70 C                    -0.225686
     71 H                     0.251525
     72 C                    -0.347183
     73 H                     0.248397
     74 C                    -0.342956
     75 H                     0.248130
     76 C                    -0.228409
     77 H                     0.251963
     78 C                    -0.150974
     79 C                    -0.397502
     80 H                     0.248499
     81 C                     0.098043
     82 C                     0.074866
     83 C                    -0.387446
     84 H                     0.242037
     85 C                    -0.153222
     86 C                     0.185562
     87 C                    -0.397391
     88 H                     0.245588
     89 C                    -0.065787
     90 C                     0.228039
     91 C                     0.184814
     92 C                    -0.385782
     93 H                     0.242995
     94 C                    -0.225566
     95 H                     0.250381
     96 C                    -0.346735
     97 H                     0.248500
     98 C                    -0.342271
     99 H                     0.248105
    100 C                    -0.227799
    101 H                     0.251809
    102 B                     0.671703
    103 C                    -0.227476
    104 C                     0.056908
    105 C                    -0.306329
    106 H                     0.241528
    107 C                     0.192534
    108 C                    -0.304355
    109 H                     0.242828
    110 C                     0.059264
    111 N                    -0.718406
    112 C                     0.309775
    113 C                     0.310730
    114 C                     0.130326
    115 C                    -0.309684
    116 H                     0.231410
    117 C                    -0.253819
    118 H                     0.232605
    119 C                    -0.252502
    120 H                     0.235752
    121 C                    -0.323968
    122 H                     0.260040
    123 C                     0.130683
    124 C                    -0.309580
    125 H                     0.231388
    126 C                    -0.254197
    127 H                     0.232581
    128 C                    -0.251566
    129 H                     0.234728
    130 C                    -0.322901
    131 H                     0.260081
    132 C                    -0.554449
    133 H                     0.245145
    134 H                     0.258317
    135 C                    -0.555184
    136 H                     0.245457
    137 H                     0.257391
    138 C                    -0.202144
    139 C                    -0.654725
    140 H                     0.236846
    141 H                     0.228638
    142 H                     0.223651
    143 C                    -0.652173
    144 H                     0.232875
    145 H                     0.223365
    146 H                     0.229746
    147 C                    -0.616075
    148 H                     0.234452
    149 H                     0.225990
    150 H                     0.226445
    151 C                    -0.613302
    152 H                     0.233919
    153 H                     0.225569
    154 H                     0.226059
  ----------------------------------------
  Sum of atomic charges =     0.000000

                    Cartesian Multipole Moments
 -----------------------------------------------------------------
    Charge (ESU x 10^10)
                 0.0000
    Dipole Moment (Debye)
         X      -0.2633      Y      -0.5757      Z       0.1575
       Tot       0.6523
    Quadrupole Moments (Debye-Ang)
        XX    -460.0481     XY      11.5544     YY    -505.7530
        XZ     -20.5824     YZ     -11.7314     ZZ    -432.3801

 Total job time:  44584.96s(wall), 166638.66s(cpu)
        *  Thank you very much for using Q-Chem.  Have a nice day.  *
