 Q-Chem 5.1, Q-Chem, Inc., Pleasanton, CA (2018)
 Q-Chem 5.1.1 for Intel X86 EM64T Linux

User input:
--------------------------------------------------------------
$rem
threads 4
jobtype	opt
method PBEh-3c
basis def2-mSVP
mem_static	1024
mem_total	4000
sym_ignore	true
scf_convergence	9
solvent_method	pcm
$end

$molecule
read chx_preopt.mol
$end

$solvent
dielectric	2.03
$end

$pcm
theory iefpcm
heavypoints 194
hpoints	    194
$end
--------------------------------------------------------------

   17   -3317.8063984454      5.65e-10  Convergence criterion met
 Total energy in the final basis set =    -3317.8063984454
   14   -3317.8063770876      5.47e-10  Convergence criterion met
 Total energy in the final basis set =    -3317.8063770876
   14   -3317.8063809869      5.48e-10  Convergence criterion met
 Total energy in the final basis set =    -3317.8063809869
   14   -3317.8063892915      5.42e-10  Convergence criterion met
 Total energy in the final basis set =    -3317.8063892915
   14   -3317.8063873253      5.28e-10  Convergence criterion met
 Total energy in the final basis set =    -3317.8063873253
   14   -3317.8063862141      5.30e-10  Convergence criterion met
 Total energy in the final basis set =    -3317.8063862141

             Standard Nuclear Orientation (Angstroms)
    I     Atom           X                Y                Z
 ----------------------------------------------------------------
    1      N       0.0709819783     0.5292640001    -0.1059195732
    2      C       0.3912576474     0.4953996977     1.2466908110
    3      C       1.0453917329     0.6838578536    -1.0854695670
    4      C       1.7156615342     0.6433023091     1.6709555876
    5      C       1.9736453927     0.5992094172     3.0375190025
    6      H       2.9941980289     0.7130939653     3.3819285962
    7      C       0.9756947869     0.4160137754     3.9783568458
    8      H       1.2171455721     0.3867559673     5.0322031520
    9      C      -0.3324915770     0.2744863216     3.5435777826
   10      H      -1.1364277328     0.1333523455     4.2544019570
   11      C      -0.6235249833     0.3144793507     2.1942675002
   12      H      -1.6493127830     0.2046216609     1.8718827823
   13      C       2.3905740967     0.8425391064    -0.7388246696
   14      C       3.3197968945     0.9972548453    -1.7636857292
   15      H       4.3643316620     1.1255149028    -1.5079001268
   16      C       2.9645392907     0.9974686496    -3.1005946235
   17      H       3.7172338811     1.1207176034    -3.8674373922
   18      C       1.6286854700     0.8368636908    -3.4313280975
   19      H       1.3150565664     0.8320827347    -4.4677393147
   20      C       0.6809604803     0.6813830277    -2.4395519496
   21      H      -0.3542404905     0.5597146400    -2.7245843718
   22      C      -1.2705943786     0.3042385506    -0.5204976685
   23      C      -2.1149536352     1.3761301629    -0.7642968576
   24      H      -1.7566838745     2.3848603909    -0.5914689779
   25      C      -1.7178792252    -0.9885625968    -0.7338678301
   26      H      -1.0495530952    -1.8200529250    -0.5372576203
   27      C      -2.9976117806    -1.2239356796    -1.2249478342
   28      C      -3.3972730105     1.1632578403    -1.2566012232
   29      C      -3.8424108396    -0.1430636643    -1.5049262256
   30      C      -3.4148674312    -2.6429558125    -1.5203894571
   31      H      -3.0625879849    -3.2993889765    -0.7203517021
   32      H      -4.5045649790    -2.7306001792    -1.5154823161
   33      C      -4.3106380051     2.3400093900    -1.4817459259
   34      H      -4.9827821838     2.1425367589    -2.3227273851
   35      H      -3.7219868690     3.2132938546    -1.7723031888
   36      C       2.8654274068     0.8620948899     0.7027410860
   37      C      -2.8741118331    -3.1478409204    -2.8569543654
   38      H      -3.2483685579    -2.5509122828    -3.6888581628
   39      H      -3.1739419878    -4.1817159106    -3.0304966452
   40      H      -1.7845241968    -3.1072074434    -2.8822651174
   41      C      -5.1368086960     2.6750719178    -0.2416448765
   42      H      -5.7900341393     3.5280500813    -0.4280862664
   43      H      -5.7652879713     1.8349802584     0.0543761318
   44      H      -4.4930286331     2.9233807481     0.6028215415
   45      C       3.5002260023     2.2326624052     0.9911019934
   46      H       2.7719689977     3.0312514962     0.8481305594
   47      H       3.8677441281     2.2917329998     2.0161598001
   48      H       4.3446503196     2.4265756159     0.3283097745
   49      C       3.9063620064    -0.2524304178     0.8996606399
   50      H       3.4667540066    -1.2300824919     0.7013381651
   51      H       4.7581480239    -0.1261075062     0.2304529502
   52      H       4.2953269921    -0.2585780258     1.9181643886
   53      B      -5.2375982231    -0.3780172507    -2.1940300662
   54      C      -6.5110498571    -0.7303554509    -1.3701427599
   55      C      -6.4359383491    -0.9378223404     0.0127446887
   56      H      -5.4805012848    -0.8446285530     0.5174390390
   57      C      -7.5745027674    -1.2683481743     0.7301085566
   58      C      -8.8138006985    -1.3767094830     0.0612247130
   59      C      -8.9033062595    -1.1597255340    -1.2993896235
   60      H      -9.8607829237    -1.2418230910    -1.8020566463
   61      C      -7.7593633509    -0.8449838631    -2.0317909571
   62      C      -7.8075943709    -1.5622842237     2.1481217525
   63      C      -7.0327165221    -1.6283481585     3.2753970687
   64      H      -5.9683128287    -1.4309049024     3.2517747801
   65      C      -9.1839398884    -1.8379888959     2.2708945311
   66      C      -9.8225650763    -2.1767966561     3.4577255299
   67      C      -9.8396549927    -1.7380991630     1.0315960345
   68      C     -11.1861671351    -1.9847104049     0.9677293337
   69      H     -11.7372974905    -1.9243899030     0.0369034211
   70      C      -7.6530381603    -1.9679190609     4.5023395532
   71      H      -7.0387935421    -2.0194118095     5.3915838676
   72      C      -8.9985558589    -2.2354729906     4.6066101658
   73      H      -9.4250392409    -2.4927733794     5.5682908826
   74      C     -11.2146852849    -2.4258841359     3.3711496054
   75      H     -11.7728615612    -2.6942297325     4.2596519277
   76      C     -11.8624989197    -2.3302351497     2.1607808207
   77      H     -12.9258258230    -2.5267552194     2.1153498957
   78      C      -5.3268997791    -0.2485413964    -3.7460458006
   79      C      -4.1763123082    -0.0125188942    -4.5077958676
   80      H      -3.2150645576     0.0835955935    -4.0160645066
   81      C      -4.2639581490     0.0955061696    -5.8852651458
   82      C      -5.5200886689    -0.0238161922    -6.5196721904
   83      C      -6.6627577450    -0.2517761509    -5.7802164686
   84      H      -7.6237664412    -0.3385420478    -6.2749744193
   85      C      -6.5806104560    -0.3709399708    -4.3929991547
   86      C      -3.2581020842     0.3288165367    -6.9279201677
   87      C      -1.9019813349     0.5218445374    -6.9594216079
   88      H      -1.3027353426     0.5250934890    -6.0572421501
   89      C      -3.9577543110     0.3424490732    -8.1506222196
   90      C      -3.3723398277     0.5390976323    -9.3972201976
   91      C      -5.3345797414     0.1336198820    -7.9592487217
   92      C      -6.1629018116     0.1208600528    -9.0520129108
   93      H      -7.2312058450    -0.0342092171    -8.9606168934
   94      C      -1.2745737886     0.7229808036    -8.2131882311
   95      H      -0.2033596968     0.8745661069    -8.2339496679
   96      C      -1.9710286277     0.7345268560    -9.3993343856
   97      H      -1.4459504182     0.8934229465   -10.3333134603
   98      C      -4.2457822311     0.5222165778   -10.5125769201
   99      H      -3.8520258802     0.6698518358   -11.5108616535
  100      C      -5.5942987189     0.3189815238   -10.3321452835
  101      H      -6.2464045509     0.3100974679   -11.1959424825
  102      B      -7.8656506449    -0.6417574292    -3.5683043416
  103      C      -9.2597555974    -0.7231055207    -4.2971247861
  104      C      -9.9771455590     0.4455840795    -4.5919136950
  105      C     -11.1937449693     0.3623971154    -5.2579117440
  106      H     -11.7498623134     1.2628212198    -5.4953985579
  107      C     -11.7127319195    -0.8689755118    -5.6210214426
  108      C     -11.0148709961    -2.0261130421    -5.3262465238
  109      H     -11.4314957395    -2.9843163015    -5.6181561348
  110      C      -9.7872921496    -1.9641316766    -4.6771737909
  111      N     -12.9562937373    -0.9448941339    -6.3061469783
  112      C     -12.9578020522    -0.9824388750    -7.6952220428
  113      C     -14.1361902448    -0.9765761693    -5.5728067366
  114      C     -15.3779263680    -1.0162511299    -6.2176819024
  115      C     -16.5265984061    -1.0401254366    -5.4334294915
  116      H     -17.4924048184    -1.0657910819    -5.9232783355
  117      C     -16.4865767774    -1.0294980216    -4.0511522291
  118      H     -17.4027869328    -1.0471657163    -3.4765861985
  119      C     -15.2513235923    -0.9963080129    -3.4241597206
  120      H     -15.1840874444    -0.9888391088    -2.3439222268
  121      C     -14.0906823128    -0.9713814119    -4.1729676566
  122      H     -13.1380108682    -0.9455139887    -3.6636150005
  123      C     -14.1606531443    -1.0258664523    -8.4090548612
  124      C     -14.1015535226    -1.0594106307    -9.7989106939
  125      H     -15.0266742943    -1.0898546355   -10.3612027424
  126      C     -12.9073368038    -1.0532748452   -10.4962909494
  127      H     -12.9043125195    -1.0808275592   -11.5775790011
  128      C     -11.7227300332    -1.0104047145    -9.7791467277
  129      H     -10.7697433412    -1.0047819532   -10.2924484920
  130      C     -11.7457157566    -0.9737979419    -8.3985280072
  131      H     -10.8091295144    -0.9389577590    -7.8612625039
  132      C      -9.0286979676    -3.2470721280    -4.4545380839
  133      H      -9.7073318507    -4.0102735990    -4.0639986304
  134      H      -8.2612422080    -3.1137405659    -3.6877296111
  135      C      -9.4871967613     1.7969830870    -4.1460211973
  136      H      -9.7322400114     2.5438451910    -4.9053225067
  137      H      -8.3967860063     1.8029706486    -4.0637411076
  138      C     -15.5199109081    -1.0297944236    -7.7314707395
  139      C     -10.1041366468     2.2102775643    -2.8112685719
  140      H      -9.8505539860     1.5001237227    -2.0237046665
  141      H      -9.7478875476     3.1930220434    -2.5010872760
  142      H     -11.1918901201     2.2544274015    -2.8801967737
  143      C      -8.3797366611    -3.7586539784    -5.7392890529
  144      H      -7.6630224920    -3.0375508725    -6.1334637450
  145      H      -9.1277372408    -3.9393704168    -6.5122921737
  146      H      -7.8483225831    -4.6943238123    -5.5640032944
  147      C     -16.2901352442    -2.2931148327    -8.1554979181
  148      H     -15.7514527021    -3.1946795299    -7.8640859770
  149      H     -16.4372854814    -2.3240188135    -9.2357771254
  150      H     -17.2789168195    -2.3291266849    -7.6966537640
  151      C     -16.3044640157     0.2178757203    -8.1747222003
  152      H     -15.7761163141     1.1299436173    -7.8972485977
  153      H     -16.4506536518     0.2298789950    -9.2557696329
  154      H     -17.2927667054     0.2484112290    -7.7139794332
 ----------------------------------------------------------------

   14   -3317.8063888712      5.28e-10  Convergence criterion met
 Total energy in the final basis set =    -3317.8063888712
 Final energy is   -3317.80638887119
 **  OPTIMIZATION CONVERGED  **

                    Orbital Energies (a.u.)
 --------------------------------------------------------------

 Alpha MOs
 -- Occupied --
-14.675 -14.674 -10.491 -10.491 -10.491 -10.491 -10.485 -10.484
-10.468 -10.468 -10.467 -10.467 -10.466 -10.466 -10.466 -10.466
-10.466 -10.466 -10.465 -10.465 -10.464 -10.464 -10.463 -10.463
-10.463 -10.463 -10.462 -10.462 -10.460 -10.460 -10.460 -10.460
-10.459 -10.458 -10.457 -10.457 -10.457 -10.456 -10.456 -10.456
-10.449 -10.449 -10.449 -10.449 -10.449 -10.449 -10.444 -10.444
-10.443 -10.443 -10.442 -10.442 -10.442 -10.442 -10.442 -10.442
-10.442 -10.441 -10.440 -10.439 -10.439 -10.438 -10.438 -10.438
-10.438 -10.438 -10.438 -10.438 -10.437 -10.437 -10.435 -10.434
-10.434 -10.434 -10.433 -10.432 -10.423 -10.423 -10.423 -10.423
-10.423 -10.422 -10.422 -10.422  -6.956  -6.954  -1.087  -1.087
 -1.019  -1.018  -0.972  -0.972  -0.965  -0.962  -0.957  -0.957
 -0.951  -0.950  -0.935  -0.935  -0.912  -0.907  -0.907  -0.904
 -0.895  -0.894  -0.871  -0.869  -0.858  -0.857  -0.849  -0.849
 -0.849  -0.848  -0.834  -0.833  -0.828  -0.826  -0.822  -0.815
 -0.815  -0.813  -0.813  -0.808  -0.806  -0.805  -0.790  -0.789
 -0.767  -0.766  -0.738  -0.733  -0.729  -0.723  -0.722  -0.721
 -0.719  -0.718  -0.707  -0.707  -0.706  -0.706  -0.692  -0.691
 -0.688  -0.681  -0.674  -0.668  -0.668  -0.668  -0.652  -0.651
 -0.639  -0.637  -0.635  -0.635  -0.614  -0.614  -0.613  -0.613
 -0.598  -0.597  -0.593  -0.590  -0.587  -0.586  -0.586  -0.578
 -0.576  -0.561  -0.560  -0.555  -0.549  -0.545  -0.534  -0.534
 -0.533  -0.531  -0.530  -0.527  -0.523  -0.522  -0.522  -0.519
 -0.515  -0.512  -0.506  -0.505  -0.504  -0.503  -0.501  -0.497
 -0.496  -0.496  -0.495  -0.494  -0.492  -0.489  -0.489  -0.489
 -0.488  -0.487  -0.487  -0.486  -0.479  -0.479  -0.479  -0.477
 -0.477  -0.475  -0.475  -0.474  -0.472  -0.469  -0.463  -0.460
 -0.456  -0.455  -0.449  -0.449  -0.447  -0.444  -0.444  -0.442
 -0.439  -0.438  -0.436  -0.436  -0.435  -0.429  -0.428  -0.428
 -0.428  -0.425  -0.424  -0.424  -0.421  -0.420  -0.414  -0.414
 -0.410  -0.406  -0.405  -0.405  -0.400  -0.399  -0.398  -0.397
 -0.397  -0.396  -0.395  -0.395  -0.394  -0.392  -0.392  -0.391
 -0.389  -0.387  -0.383  -0.376  -0.376  -0.372  -0.371  -0.370
 -0.367  -0.366  -0.364  -0.364  -0.358  -0.354  -0.351  -0.345
 -0.322  -0.316  -0.297  -0.297  -0.297  -0.296  -0.287  -0.287
 -0.286  -0.282  -0.282  -0.282  -0.281  -0.279  -0.278  -0.264
 -0.260  -0.258  -0.221  -0.220

          Ground-State Mulliken Net Atomic Charges

     Atom                 Charge (a.u.)
  ----------------------------------------
      1 N                    -0.719985
      2 C                     0.314008
      3 C                     0.308626
      4 C                     0.137101
      5 C                    -0.301660
      6 H                     0.219259
      7 C                    -0.242233
      8 H                     0.222496
      9 C                    -0.243413
     10 H                     0.225470
     11 C                    -0.317501
     12 H                     0.255419
     13 C                     0.139262
     14 C                    -0.301414
     15 H                     0.219408
     16 C                    -0.241839
     17 H                     0.222227
     18 C                    -0.242666
     19 H                     0.221302
     20 C                    -0.313126
     21 H                     0.255928
     22 C                     0.186272
     23 C                    -0.308654
     24 H                     0.234332
     25 C                    -0.292652
     26 H                     0.235070
     27 C                     0.061108
     28 C                     0.059216
     29 C                    -0.216329
     30 C                    -0.555857
     31 H                     0.240875
     32 H                     0.255267
     33 C                    -0.555132
     34 H                     0.257908
     35 H                     0.240988
     36 C                    -0.205306
     37 C                    -0.651311
     38 H                     0.240089
     39 H                     0.225892
     40 H                     0.221660
     41 C                    -0.649828
     42 H                     0.224960
     43 H                     0.240218
     44 H                     0.221363
     45 C                    -0.604951
     46 H                     0.234691
     47 H                     0.220981
     48 H                     0.220577
     49 C                    -0.609777
     50 H                     0.235104
     51 H                     0.221312
     52 H                     0.221134
     53 B                     0.667963
     54 C                    -0.151160
     55 C                    -0.400179
     56 H                     0.236444
     57 C                     0.105714
     58 C                     0.080612
     59 C                    -0.386695
     60 H                     0.236250
     61 C                    -0.152287
     62 C                     0.190916
     63 C                    -0.390579
     64 H                     0.233119
     65 C                    -0.063560
     66 C                     0.240952
     67 C                     0.190435
     68 C                    -0.380987
     69 H                     0.232030
     70 C                    -0.215588
     71 H                     0.241046
     72 C                    -0.342751
     73 H                     0.236645
     74 C                    -0.338347
     75 H                     0.236382
     76 C                    -0.218460
     77 H                     0.241481
     78 C                    -0.150476
     79 C                    -0.395100
     80 H                     0.241829
     81 C                     0.104794
     82 C                     0.081001
     83 C                    -0.385582
     84 H                     0.235953
     85 C                    -0.152152
     86 C                     0.192074
     87 C                    -0.392645
     88 H                     0.233015
     89 C                    -0.064447
     90 C                     0.239509
     91 C                     0.191400
     92 C                    -0.381684
     93 H                     0.231212
     94 C                    -0.215158
     95 H                     0.239769
     96 C                    -0.342303
     97 H                     0.236713
     98 C                    -0.337635
     99 H                     0.236304
    100 C                    -0.217823
    101 H                     0.241232
    102 B                     0.671769
    103 C                    -0.228181
    104 C                     0.060718
    105 C                    -0.300521
    106 H                     0.234411
    107 C                     0.191654
    108 C                    -0.299179
    109 H                     0.235816
    110 C                     0.061620
    111 N                    -0.720626
    112 C                     0.312205
    113 C                     0.313054
    114 C                     0.136568
    115 C                    -0.300953
    116 H                     0.219420
    117 C                    -0.242513
    118 H                     0.222564
    119 C                    -0.242590
    120 H                     0.224236
    121 C                    -0.315479
    122 H                     0.253597
    123 C                     0.136681
    124 C                    -0.300761
    125 H                     0.219380
    126 C                    -0.242752
    127 H                     0.222500
    128 C                    -0.241546
    129 H                     0.222883
    130 C                    -0.314242
    131 H                     0.253534
    132 C                    -0.554082
    133 H                     0.241064
    134 H                     0.258163
    135 C                    -0.554364
    136 H                     0.241262
    137 H                     0.256864
    138 C                    -0.206855
    139 C                    -0.650432
    140 H                     0.238266
    141 H                     0.225598
    142 H                     0.221839
    143 C                    -0.647599
    144 H                     0.234091
    145 H                     0.221208
    146 H                     0.226860
    147 C                    -0.608078
    148 H                     0.235295
    149 H                     0.220652
    150 H                     0.221209
    151 C                    -0.605198
    152 H                     0.234530
    153 H                     0.220403
    154 H                     0.220949
  ----------------------------------------
  Sum of atomic charges =     0.000000

                    Cartesian Multipole Moments
 -----------------------------------------------------------------
    Charge (ESU x 10^10)
                 0.0000
    Dipole Moment (Debye)
         X      -0.2661      Y      -0.5202      Z       0.1928
       Tot       0.6152
    Quadrupole Moments (Debye-Ang)
        XX    -467.6025     XY      10.2981     YY    -506.5608
        XZ     -20.9059     YZ     -11.1639     ZZ    -439.2767

 Total job time:  49389.57s(wall), 183327.37s(cpu)
        *  Thank you very much for using Q-Chem.  Have a nice day.  *
