 Q-Chem 5.1, Q-Chem, Inc., Pleasanton, CA (2018)
 Q-Chem 5.1.1 for Intel X86 EM64T Linux

User input:
--------------------------------------------------------------
$rem
threads 4
jobtype	opt
method PBEh-3c
basis def2-mSVP
mem_static	1024
mem_total	4000
sym_ignore	true
scf_convergence	9
solvent_method	pcm
$end

$molecule
read gsopt.mol
$end

$solvent
dielectric	4.33
$end

$pcm
theory iefpcm
$end
--------------------------------------------------------------

   16   -3317.8185084037      9.60e-10  Convergence criterion met
 Total energy in the final basis set =    -3317.8185084037
   15   -3317.8188319764      4.62e-10  Convergence criterion met
 Total energy in the final basis set =    -3317.8188319764
   15   -3317.8180028719      4.75e-10  Convergence criterion met
 Total energy in the final basis set =    -3317.8180028719
   15   -3317.8185348476      4.15e-10  Convergence criterion met
 Total energy in the final basis set =    -3317.8185348476
   14   -3317.8188451175      9.71e-10  Convergence criterion met
 Total energy in the final basis set =    -3317.8188451175
   15   -3317.8188026012      4.34e-10  Convergence criterion met
 Total energy in the final basis set =    -3317.8188026012
   15   -3317.8185386195      4.48e-10  Convergence criterion met
 Total energy in the final basis set =    -3317.8185386195
   15   -3317.8187796642      4.06e-10  Convergence criterion met
   14   -3317.8189362710      8.26e-10  Convergence criterion met
 Total energy in the final basis set =    -3317.8189362710
   14   -3317.8189431039      8.78e-10  Convergence criterion met
 Total energy in the final basis set =    -3317.8189431039
   14   -3317.8189587452      8.63e-10  Convergence criterion met
 Total energy in the final basis set =    -3317.8189587452
   14   -3317.8189639923      8.40e-10  Convergence criterion met
 Total energy in the final basis set =    -3317.8189639923
   14   -3317.8189604463      8.49e-10  Convergence criterion met
 Total energy in the final basis set =    -3317.8189604463
   14   -3317.8189520981      8.46e-10  Convergence criterion met
 Total energy in the final basis set =    -3317.8189520981

             Standard Nuclear Orientation (Angstroms)
    I     Atom           X                Y                Z
 ----------------------------------------------------------------
    1      N       0.0691968415     0.5377201929    -0.1060628202
    2      C       0.3921406827     0.5051148378     1.2457495942
    3      C       1.0413718986     0.6952858166    -1.0872612456
    4      C       1.7170005688     0.6593998458     1.6679199676
    5      C       1.9776664499     0.6171875690     3.0343868682
    6      H       2.9980861436     0.7368042479     3.3770748284
    7      C       0.9817736801     0.4291239550     3.9773058244
    8      H       1.2253704452     0.4014415080     5.0308129108
    9      C      -0.3268901907     0.2805533714     3.5448153538
   10      H      -1.1291218113     0.1349764092     4.2568149166
   11      C      -0.6203080987     0.3190086375     2.1954788703
   12      H      -1.6464668277     0.2035897623     1.8759206580
   13      C       2.3869392560     0.8590903807    -0.7429813070
   14      C       3.3142979398     1.0150752545    -1.7699069569
   15      H       4.3589023165     1.1469620601    -1.5161798300
   16      C       2.9563351708     1.0126853969    -3.1066949941
   17      H       3.7075120229     1.1372485212    -3.8749993879
   18      C       1.6198858257     0.8481969849    -3.4353135998
   19      H       1.3036751346     0.8417442552    -4.4709949398
   20      C       0.6742815978     0.6910072075    -2.4410329970
   21      H      -0.3608785820     0.5663326050    -2.7253076808
   22      C      -1.2728722576     0.3087651078    -0.5187186847
   23      C      -2.1211501689     1.3787930194    -0.7575155695
   24      H      -1.7673923024     2.3888129722    -0.5822817517
   25      C      -1.7149939397    -0.9854288788    -0.7351469474
   26      H      -1.0440007865    -1.8157530025    -0.5420996250
   27      C      -2.9946451239    -1.2239166893    -1.2256469447
   28      C      -3.4035247399     1.1621935920    -1.2485829573
   29      C      -3.8435706038    -0.1450927904    -1.5010300804
   30      C      -3.4072808804    -2.6437246789    -1.5237582797
   31      H      -3.0600056980    -3.2992367547    -0.7208764832
   32      H      -4.4968512633    -2.7332031126    -1.5279933815
   33      C      -4.3221010866     2.3359953676    -1.4678659278
   34      H      -5.0000911405     2.1361848256    -2.3036688483
   35      H      -3.7384122171     3.2113215390    -1.7620583786
   36      C       2.8640976043     0.8850487803     0.6978625992
   37      C      -2.8547095983    -3.1485962067    -2.8555054887
   38      H      -3.2194323906    -2.5497210349    -3.6903786301
   39      H      -3.1554178076    -4.1816925778    -3.0323121706
   40      H      -1.7647703893    -3.1106112133    -2.8697247269
   41      C      -5.1405065002     2.6681370609    -0.2218103031
   42      H      -5.8010483966     3.5161048681    -0.4054306954
   43      H      -5.7601720460     1.8238150005     0.0811311939
   44      H      -4.4915048146     2.9230990550     0.6167549664
   45      C       3.4889519800     2.2611159248     0.9825985626
   46      H       2.7543080684     3.0544292206     0.8411413526
   47      H       3.8598814305     2.3229809876     2.0063548231
   48      H       4.3298547791     2.4593412885     0.3165438653
   49      C       3.9155635309    -0.2194323868     0.8957616186
   50      H       3.4855087068    -1.2020156315     0.6996493406
   51      H       4.7653665917    -0.0848845255     0.2256220504
   52      H       4.3058755071    -0.2189364864     1.9137980601
   53      B      -5.2380064713    -0.3822001096    -2.1910192916
   54      C      -6.5127713340    -0.7333503209    -1.3683352785
   55      C      -6.4382544751    -0.9450788308     0.0140557478
   56      H      -5.4837986034    -0.8554225615     0.5211851290
   57      C      -7.5778972558    -1.2772854104     0.7295705409
   58      C      -8.8175434820    -1.3815511279     0.0599562127
   59      C      -8.9063576273    -1.1597870805    -1.3003473917
   60      H      -9.8643186691    -1.2392600772    -1.8023960353
   61      C      -7.7611967746    -0.8447563520    -2.0310551303
   62      C      -7.8108627272    -1.5780872016     2.1461243415
   63      C      -7.0349317057    -1.6513537372     3.2727642538
   64      H      -5.9703313753    -1.4546565630     3.2496718054
   65      C      -9.1876199487    -1.8534422351     2.2674345474
   66      C      -9.8260573296    -2.1991841902     3.4527829427
   67      C      -9.8439018617    -1.7465878079     1.0286901773
   68      C     -11.1910690139    -1.9921923398     0.9636903915
   69      H     -11.7427837340    -1.9264393952     0.0335196815
   70      C      -7.6554340451    -1.9978455979     4.4981186002
   71      H      -7.0408101303    -2.0549953461     5.3868153479
   72      C      -9.0016051815    -2.2652577969     4.6013812029
   73      H      -9.4282358404    -2.5282313751     5.5615074773
   74      C     -11.2186133843    -2.4477160650     3.3655405233
   75      H     -11.7761398004    -2.7216222756     4.2528274844
   76      C     -11.8669860006    -2.3444795644     2.1555116631
   77      H     -12.9304331097    -2.5403401540     2.1090857103
   78      C      -5.3249515109    -0.2566812336    -3.7437354946
   79      C      -4.1725358671    -0.0257139684    -4.5045241378
   80      H      -3.2111430769     0.0713899200    -4.0133393245
   81      C      -4.2578291367     0.0749866432    -5.8830188688
   82      C      -5.5132225581    -0.0464498163    -6.5191717145
   83      C      -6.6581592449    -0.2671568827    -5.7803201264
   84      H      -7.6178268198    -0.3543279520    -6.2775525611
   85      C      -6.5782249515    -0.3790782360    -4.3921907937
   86      C      -3.2495229990     0.3013052327    -6.9249114070
   87      C      -1.8927280400     0.4934745884    -6.9544102905
   88      H      -1.2952411087     0.5017401828    -6.0509888847
   89      C      -3.9471475827     0.3081381112    -8.1490939661
   90      C      -3.3589535507     0.4970099558    -9.3959571117
   91      C      -5.3248360360     0.1016415246    -7.9594421545
   92      C      -6.1515223256     0.0823482307    -9.0539232162
   93      H      -7.2201103719    -0.0718069175    -8.9636433262
   94      C      -1.2628579171     0.6869149698    -8.2086189336
   95      H      -0.1914665237     0.8377465892    -8.2280343842
   96      C      -1.9571633760     0.6918041863    -9.3967224764
   97      H      -1.4305487241     0.8448730882   -10.3308473834
   98      C      -4.2302364673     0.4739510785   -10.5133742022
   99      H      -3.8340375151     0.6154320610   -11.5116187877
  100      C      -5.5797089424     0.2722509049   -10.3343146271
  101      H      -6.2300559312     0.2581602121   -11.1994389949
  102      B      -7.8655476806    -0.6418415407    -3.5679091235
  103      C      -9.2594103469    -0.7181848273    -4.2978691220
  104      C      -9.9769495068     0.4524723886    -4.5842690219
  105      C     -11.1938396940     0.3738191227    -5.2507245079
  106      H     -11.7496682475     1.2763513920    -5.4812021458
  107      C     -11.7116718773    -0.8557569896    -5.6221562290
  108      C     -11.0134551427    -2.0150904906    -5.3365680159
  109      H     -11.4289807923    -2.9719040203    -5.6348693822
  110      C      -9.7857096384    -1.9569165962    -4.6869991189
  111      N     -12.9565739610    -0.9279543783    -6.3064499935
  112      C     -12.9602599612    -0.9534093304    -7.6956983574
  113      C     -14.1351513522    -0.9703616306    -5.5717497806
  114      C     -15.3781357811    -1.0103351761    -6.2151294911
  115      C     -16.5258281857    -1.0458957943    -5.4291114166
  116      H     -17.4924560563    -1.0717800514    -5.9173740714
  117      C     -16.4834798278    -1.0469722095    -4.0462909144
  118      H     -17.3988379624    -1.0739543388    -3.4704935413
  119      C     -15.2469767437    -1.0133902379    -3.4206123614
  120      H     -15.1774670302    -1.0152632496    -2.3404235372
  121      C     -14.0874750250    -0.9765794061    -4.1715345238
  122      H     -13.1345934583    -0.9508143018    -3.6623782285
  123      C     -14.1642879987    -0.9975280247    -8.4083553523
  124      C     -14.1072870372    -1.0192315762    -9.7989723234
  125      H     -15.0328325743    -1.0502945594   -10.3606340637
  126      C     -12.9135424901    -1.0001061794   -10.4980728214
  127      H     -12.9120363577    -1.0182808195   -11.5796782938
  128      C     -11.7275983725    -0.9559723547    -9.7822314599
  129      H     -10.7751889984    -0.9396141159   -10.2965211047
  130      C     -11.7489073404    -0.9319238952    -8.4008077939
  131      H     -10.8110414250    -0.8966812288    -7.8655496572
  132      C      -9.0271544663    -3.2411224704    -4.4714069942
  133      H      -9.7016083929    -4.0012536501    -4.0680111030
  134      H      -8.2472231105    -3.1068267333    -3.7172940185
  135      C      -9.4865993366     1.8007985831    -4.1294367573
  136      H      -9.7241032918     2.5515425651    -4.8871864926
  137      H      -8.3968168988     1.8032436257    -4.0381320128
  138      C     -15.5226722541    -1.0138168266    -7.7289140634
  139      C     -10.1125610819     2.2104881426    -2.7977471108
  140      H      -9.8703169945     1.4939236656    -2.0122687034
  141      H      -9.7526315750     3.1893160906    -2.4794123368
  142      H     -11.1994064846     2.2619702063    -2.8762629366
  143      C      -8.3993715658    -3.7595493555    -5.7640002021
  144      H      -7.6916526453    -3.0391804221    -6.1756761608
  145      H      -9.1607023294    -3.9473805099    -6.5221831824
  146      H      -7.8631247211    -4.6929692114    -5.5912653627
  147      C     -16.2869318014    -2.2783094302    -8.1608135542
  148      H     -15.7433295252    -3.1794539145    -7.8764144391
  149      H     -16.4353296382    -2.3014669386    -9.2411144559
  150      H     -17.2750530757    -2.3217897400    -7.7010794528
  151      C     -16.3151212980     0.2323838452    -8.1624791182
  152      H     -15.7910386952     1.1459729252    -7.8810380384
  153      H     -16.4647108250     0.2490424544    -9.2429776757
  154      H     -17.3022473635     0.2536768134    -7.6988185991
 ----------------------------------------------------------------

   14   -3317.8189561386      8.35e-10  Convergence criterion met
 Total energy in the final basis set =    -3317.8189561386
 Final energy is   -3317.81895613861
 **  OPTIMIZATION CONVERGED  **

                    Orbital Energies (a.u.)
 --------------------------------------------------------------

 Alpha MOs
 -- Occupied --
-14.677 -14.676 -10.494 -10.494 -10.493 -10.493 -10.485 -10.485
-10.469 -10.468 -10.468 -10.467 -10.467 -10.466 -10.466 -10.466
-10.466 -10.466 -10.466 -10.466 -10.465 -10.464 -10.463 -10.462
-10.462 -10.462 -10.462 -10.462 -10.460 -10.459 -10.459 -10.459
-10.459 -10.459 -10.457 -10.457 -10.457 -10.457 -10.457 -10.457
-10.451 -10.451 -10.451 -10.451 -10.449 -10.449 -10.444 -10.444
-10.444 -10.444 -10.444 -10.444 -10.444 -10.444 -10.444 -10.443
-10.443 -10.443 -10.441 -10.440 -10.440 -10.440 -10.440 -10.440
-10.439 -10.439 -10.438 -10.438 -10.438 -10.438 -10.436 -10.436
-10.436 -10.436 -10.433 -10.433 -10.423 -10.423 -10.423 -10.423
-10.423 -10.422 -10.422 -10.422  -6.957  -6.955  -1.089  -1.089
 -1.019  -1.019  -0.973  -0.973  -0.965  -0.963  -0.959  -0.959
 -0.952  -0.951  -0.935  -0.934  -0.912  -0.908  -0.908  -0.904
 -0.895  -0.894  -0.872  -0.869  -0.858  -0.858  -0.851  -0.851
 -0.848  -0.848  -0.836  -0.835  -0.829  -0.826  -0.822  -0.815
 -0.815  -0.815  -0.815  -0.808  -0.806  -0.805  -0.791  -0.790
 -0.767  -0.766  -0.738  -0.733  -0.728  -0.723  -0.723  -0.722
 -0.719  -0.718  -0.708  -0.708  -0.707  -0.707  -0.693  -0.691
 -0.689  -0.681  -0.675  -0.670  -0.669  -0.668  -0.652  -0.651
 -0.640  -0.638  -0.636  -0.635  -0.615  -0.615  -0.615  -0.615
 -0.598  -0.597  -0.592  -0.589  -0.587  -0.587  -0.585  -0.577
 -0.576  -0.562  -0.561  -0.555  -0.549  -0.545  -0.536  -0.536
 -0.534  -0.532  -0.530  -0.527  -0.524  -0.523  -0.523  -0.520
 -0.515  -0.512  -0.505  -0.504  -0.504  -0.503  -0.502  -0.498
 -0.497  -0.496  -0.496  -0.494  -0.492  -0.490  -0.489  -0.489
 -0.488  -0.488  -0.487  -0.485  -0.480  -0.480  -0.479  -0.478
 -0.478  -0.475  -0.475  -0.474  -0.473  -0.468  -0.463  -0.460
 -0.456  -0.455  -0.450  -0.450  -0.447  -0.445  -0.445  -0.441
 -0.439  -0.438  -0.437  -0.437  -0.436  -0.429  -0.429  -0.428
 -0.428  -0.425  -0.425  -0.424  -0.422  -0.420  -0.416  -0.416
 -0.410  -0.407  -0.406  -0.405  -0.400  -0.399  -0.398  -0.398
 -0.397  -0.396  -0.395  -0.395  -0.394  -0.392  -0.392  -0.392
 -0.389  -0.387  -0.384  -0.377  -0.377  -0.373  -0.372  -0.371
 -0.368  -0.367  -0.365  -0.365  -0.359  -0.355  -0.352  -0.345
 -0.323  -0.317  -0.300  -0.300  -0.298  -0.297  -0.290  -0.289
 -0.287  -0.284  -0.284  -0.283  -0.281  -0.280  -0.280  -0.265
 -0.261  -0.258  -0.223  -0.223

          Ground-State Mulliken Net Atomic Charges

     Atom                 Charge (a.u.)
  ----------------------------------------
      1 N                    -0.717697
      2 C                     0.311869
      3 C                     0.306177
      4 C                     0.130868
      5 C                    -0.310433
      6 H                     0.231489
      7 C                    -0.253724
      8 H                     0.232642
      9 C                    -0.253366
     10 H                     0.236775
     11 C                    -0.326005
     12 H                     0.261393
     13 C                     0.133228
     14 C                    -0.310474
     15 H                     0.231535
     16 C                    -0.253377
     17 H                     0.232497
     18 C                    -0.253740
     19 H                     0.234890
     20 C                    -0.322563
     21 H                     0.263131
     22 C                     0.187285
     23 C                    -0.314049
     24 H                     0.241499
     25 C                    -0.298487
     26 H                     0.242398
     27 C                     0.058033
     28 C                     0.054907
     29 C                    -0.215421
     30 C                    -0.556024
     31 H                     0.245144
     32 H                     0.255631
     33 C                    -0.556110
     34 H                     0.258516
     35 H                     0.245329
     36 C                    -0.200564
     37 C                    -0.655611
     38 H                     0.238493
     39 H                     0.228981
     40 H                     0.223388
     41 C                    -0.654307
     42 H                     0.228131
     43 H                     0.238748
     44 H                     0.223273
     45 C                    -0.612853
     46 H                     0.234077
     47 H                     0.225941
     48 H                     0.225701
     49 C                    -0.618308
     50 H                     0.234586
     51 H                     0.226633
     52 H                     0.226507
     53 B                     0.667483
     54 C                    -0.151912
     55 C                    -0.401543
     56 H                     0.242882
     57 C                     0.098908
     58 C                     0.074310
     59 C                    -0.388875
     60 H                     0.242814
     61 C                    -0.153075
     62 C                     0.184209
     63 C                    -0.394162
     64 H                     0.244934
     65 C                    -0.064845
     66 C                     0.229492
     67 C                     0.183768
     68 C                    -0.385204
     69 H                     0.243925
     70 C                    -0.225885
     71 H                     0.251675
     72 C                    -0.347296
     73 H                     0.248496
     74 C                    -0.343099
     75 H                     0.248163
     76 C                    -0.228446
     77 H                     0.252110
     78 C                    -0.150999
     79 C                    -0.397452
     80 H                     0.248559
     81 C                     0.097832
     82 C                     0.074960
     83 C                    -0.387743
     84 H                     0.242127
     85 C                    -0.153175
     86 C                     0.185401
     87 C                    -0.397324
     88 H                     0.245688
     89 C                    -0.065691
     90 C                     0.227821
     91 C                     0.184691
     92 C                    -0.385827
     93 H                     0.243221
     94 C                    -0.225670
     95 H                     0.250484
     96 C                    -0.346695
     97 H                     0.248618
     98 C                    -0.342332
     99 H                     0.248257
    100 C                    -0.227992
    101 H                     0.251939
    102 B                     0.671640
    103 C                    -0.227579
    104 C                     0.057044
    105 C                    -0.306561
    106 H                     0.241720
    107 C                     0.192429
    108 C                    -0.304209
    109 H                     0.243034
    110 C                     0.058897
    111 N                    -0.718374
    112 C                     0.310061
    113 C                     0.310556
    114 C                     0.130436
    115 C                    -0.310028
    116 H                     0.231609
    117 C                    -0.254134
    118 H                     0.232775
    119 C                    -0.252429
    120 H                     0.235853
    121 C                    -0.324065
    122 H                     0.260122
    123 C                     0.130480
    124 C                    -0.309548
    125 H                     0.231307
    126 C                    -0.253981
    127 H                     0.232644
    128 C                    -0.251885
    129 H                     0.234913
    130 C                    -0.323215
    131 H                     0.260288
    132 C                    -0.554530
    133 H                     0.245217
    134 H                     0.258595
    135 C                    -0.555226
    136 H                     0.245538
    137 H                     0.257295
    138 C                    -0.201905
    139 C                    -0.654871
    140 H                     0.236871
    141 H                     0.228701
    142 H                     0.223675
    143 C                    -0.652230
    144 H                     0.232797
    145 H                     0.223470
    146 H                     0.229777
    147 C                    -0.616338
    148 H                     0.234599
    149 H                     0.226006
    150 H                     0.226440
    151 C                    -0.613546
    152 H                     0.234075
    153 H                     0.225620
    154 H                     0.226065
  ----------------------------------------
  Sum of atomic charges =     0.000000

                    Cartesian Multipole Moments
 -----------------------------------------------------------------
    Charge (ESU x 10^10)
                 0.0000
    Dipole Moment (Debye)
         X      -0.2549      Y      -0.5892      Z       0.1425
       Tot       0.6576
    Quadrupole Moments (Debye-Ang)
        XX    -460.1851     XY      11.8505     YY    -505.6286
        XZ     -20.4889     YZ     -11.6261     ZZ    -432.3444

 Total job time:  177860.04s(wall), 640430.31s(cpu)
        *  Thank you very much for using Q-Chem.  Have a nice day.  *
