 Q-Chem 5.1, Q-Chem, Inc., Pleasanton, CA (2018)
 Q-Chem 5.1.1 for Intel X86 EM64T Linux

User input:
--------------------------------------------------------------
$rem
threads 4
jobtype	opt
method PBEh-3c
basis def2-mSVP
mem_static	1024
mem_total	4000
sym_ignore	true
scf_convergence	9
solvent_method	pcm
$end

$molecule
read gsopt.mol
$end

$solvent
dielectric	2.38
$end

$pcm
theory iefpcm
$end
--------------------------------------------------------------

   17   -3317.8090756967      5.45e-10  Convergence criterion met
 Total energy in the final basis set =    -3317.8090756967
   15   -3317.8093920998      4.15e-10  Convergence criterion met
 Total energy in the final basis set =    -3317.8093920998
   15   -3317.8085730945      3.94e-10  Convergence criterion met
 Total energy in the final basis set =    -3317.8085730945
   14   -3317.8089754923      8.57e-10  Convergence criterion met
 Total energy in the final basis set =    -3317.8089754923
   14   -3317.8093516026      7.54e-10  Convergence criterion met
 Total energy in the final basis set =    -3317.8093516026
   14   -3317.8093661896      8.81e-10  Convergence criterion met
 Total energy in the final basis set =    -3317.8093661896
   14   -3317.8089768319      8.69e-10  Convergence criterion met
 Total energy in the final basis set =    -3317.8089768319
   14   -3317.8092368999      7.78e-10  Convergence criterion met
   14   -3317.8093977790      6.16e-10  Convergence criterion met
 Total energy in the final basis set =    -3317.8093977790
   14   -3317.8094176509      6.06e-10  Convergence criterion met
 Total energy in the final basis set =    -3317.8094176509
   14   -3317.8094374163      6.63e-10  Convergence criterion met
 Total energy in the final basis set =    -3317.8094374163
   14   -3317.8094399077      6.07e-10  Convergence criterion met
 Total energy in the final basis set =    -3317.8094399077
   14   -3317.8094324438      6.08e-10  Convergence criterion met
 Total energy in the final basis set =    -3317.8094324438
   14   -3317.8094291927      6.09e-10  Convergence criterion met
 Total energy in the final basis set =    -3317.8094291927

             Standard Nuclear Orientation (Angstroms)
    I     Atom           X                Y                Z
 ----------------------------------------------------------------
    1      N       0.0707310763     0.5283203592    -0.1031011857
    2      C       0.3889018806     0.4962645940     1.2499829992
    3      C       1.0468480888     0.6805707597    -1.0812233742
    4      C       1.7126320971     0.6454969040     1.6762590565
    5      C       1.9682960051     0.6039667012     3.0433759307
    6      H       2.9880841765     0.7198462497     3.3891641237
    7      C       0.9688012913     0.4215838850     3.9829477226
    8      H       1.2085685021     0.3943392055     5.0372596454
    9      C      -0.3386272788     0.2782533890     3.5462057380
   10      H      -1.1437210766     0.1375391453     4.2558579714
   11      C      -0.6273866818     0.3160169795     2.1962343949
   12      H      -1.6526753495     0.2050508883     1.8725556383
   13      C       2.3915511657     0.8397588089    -0.7326532597
   14      C       3.3226602534     0.9908449038    -1.7564419310
   15      H       4.3667849557     1.1192149405    -1.4991247127
   16      C       2.9696170919     0.9877674221    -3.0940813894
   17      H       3.7237658791     1.1084624096    -3.8599563303
   18      C       1.6341004264     0.8274135333    -3.4267305701
   19      H       1.3220116760     0.8203085125    -4.4636088887
   20      C       0.6846142316     0.6752012363    -2.4359574605
   21      H      -0.3501423604     0.5534754160    -2.7226286273
   22      C      -1.2705238134     0.3040911494    -0.5196293223
   23      C      -2.1142360815     1.3765899739    -0.7630439170
   24      H      -1.7561391095     2.3851252935    -0.5885834990
   25      C      -1.7176562718    -0.9884469406    -0.7350884783
   26      H      -1.0498101429    -1.8204642182    -0.5389139471
   27      C      -2.9969024487    -1.2229661907    -1.2280428885
   28      C      -3.3961644208     1.1644105498    -1.2568289173
   29      C      -3.8412378716    -0.1415223522    -1.5073307234
   30      C      -3.4139461875    -2.6415922672    -1.5256231025
   31      H      -3.0635609053    -3.2988019049    -0.7254093133
   32      H      -4.5036692288    -2.7289898890    -1.5234480644
   33      C      -4.3093303218     2.3415305345    -1.4807877616
   34      H      -4.9826896176     2.1444987007    -2.3209155194
   35      H      -3.7207614982     3.2147487594    -1.7716949225
   36      C       2.8636930801     0.8655104464     0.7097474455
   37      C      -2.8700952038    -3.1455411641    -2.8612988093
   38      H      -3.2414859508    -2.5473093572    -3.6935882657
   39      H      -3.1705678557    -4.1789393035    -3.0366083033
   40      H      -1.7803804548    -3.1060195479    -2.8835071320
   41      C      -5.1339129192     2.6763650755    -0.2395399665
   42      H      -5.7879851739     3.5288384255    -0.4253643906
   43      H      -5.7612915474     1.8357890534     0.0575782672
   44      H      -4.4890373901     2.9253527739     0.6039205050
   45      C       3.4923070184     2.2396733287     0.9949990251
   46      H       2.7607154395     3.0348942891     0.8498600160
   47      H       3.8593471245     2.3023785385     2.0200850689
   48      H       4.3360938320     2.4351741410     0.3317921905
   49      C       3.9096656493    -0.2432736572     0.9122210971
   50      H       3.4755770619    -1.2238268496     0.7158027291
   51      H       4.7623037691    -0.1142180919     0.2445943521
   52      H       4.2968467143    -0.2442338694     1.9314488991
   53      B      -5.2362712201    -0.3749026779    -2.1972919459
   54      C      -6.5104874535    -0.7258734170    -1.3739386468
   55      C      -6.4356399429    -0.9364732329     0.0085061394
   56      H      -5.4802513268    -0.8462146922     0.5138231664
   57      C      -7.5747023092    -1.2675715769     0.7249432974
   58      C      -8.8143801382    -1.3722949020     0.0560081370
   59      C      -8.9036184486    -1.1515875419    -1.3041401457
   60      H      -9.8612682310    -1.2310781875    -1.8068164706
   61      C      -7.7590243166    -0.8373585952    -2.0358482295
   62      C      -7.8074506662    -1.5667584359     2.1418673724
   63      C      -7.0317052245    -1.6387771752     3.2682873290
   64      H      -5.9671135555    -1.4422849715     3.2447786484
   65      C      -9.1839985926    -1.8418905509     2.2640633956
   66      C      -9.8220764989    -2.1861468150     3.4497267477
   67      C      -9.8403016586    -1.7364362448     1.0254391669
   68      C     -11.1870620202    -1.9824485699     0.9611969041
   69      H     -11.7388587175    -1.9182250307     0.0310124139
   70      C      -7.6516129023    -1.9835974926     4.4940727225
   71      H      -7.0368740001    -2.0397316470     5.3827187861
   72      C      -8.9973757762    -2.2507372977     4.5978776562
   73      H      -9.4234614336    -2.5124511272     5.5585615744
   74      C     -11.2143395396    -2.4347907121     3.3628562158
   75      H     -11.7719603833    -2.7076271977     4.2503752920
   76      C     -11.8627931132    -2.3333071911     2.1531798959
   77      H     -12.9261635545    -2.5295423384     2.1072585160
   78      C      -5.3248275771    -0.2454782366    -3.7493852024
   79      C      -4.1733785149    -0.0124643075    -4.5107996740
   80      H      -3.2121039554     0.0825060559    -4.0189399503
   81      C      -4.2600080074     0.0933767086    -5.8885639010
   82      C      -5.5160155726    -0.0250315440    -6.5235594954
   83      C      -6.6596971848    -0.2491101080    -5.7843236907
   84      H      -7.6205048357    -0.3348281297    -6.2796183583
   85      C      -6.5785143424    -0.3661808827    -4.3968288399
   86      C      -3.2530101243     0.3228423248    -6.9309848973
   87      C      -1.8964464715     0.5137968468    -6.9618257251
   88      H      -1.2979177758     0.5181659260    -6.0591352145
   89      C      -3.9518801817     0.3347611274    -8.1542083490
   90      C      -3.3652230402     0.5275647631    -9.4008998674
   91      C      -5.3292522556     0.1286063544    -7.9633966594
   92      C      -6.1569668072     0.1142999426    -9.0567297673
   93      H      -7.2255839577    -0.0388793217    -8.9656390854
   94      C      -1.2678869575     0.7111275157    -8.2157388606
   95      H      -0.1964092856     0.8610018803    -8.2360929464
   96      C      -1.9635386184     0.7209603023    -9.4025429613
   97      H      -1.4376680891     0.8768735487   -10.3365846044
   98      C      -4.2379228583     0.5092981845   -10.5169111935
   99      H      -3.8432164348     0.6540058006   -11.5152526927
  100      C      -5.5869795801     0.3083660266   -10.3369695572
  101      H      -6.2383977751     0.2982715384   -11.2013038820
  102      B      -7.8644682493    -0.6339725646    -3.5724540279
  103      C      -9.2585457589    -0.7145804159    -4.3014539294
  104      C      -9.9766770290     0.4539510841    -4.5949374032
  105      C     -11.1941584403     0.3705669251    -5.2594903561
  106      H     -11.7508079095     1.2710139160    -5.4957340724
  107      C     -11.7131254334    -0.8610441630    -5.6218908128
  108      C     -11.0142245103    -2.0180964784    -5.3290218730
  109      H     -11.4307468123    -2.9764999240    -5.6205180707
  110      C      -9.7856597606    -1.9557321790    -4.6817835606
  111      N     -12.9585087271    -0.9377449224    -6.3039700680
  112      C     -12.9635641941    -0.9771574481    -7.6929358928
  113      C     -14.1363586304    -0.9725403725    -5.5675673055
  114      C     -15.3797024047    -1.0178720760    -6.2091823668
  115      C     -16.5262329085    -1.0453458070    -5.4217607973
  116      H     -17.4932635064    -1.0752165293    -5.9089446496
  117      C     -16.4826676770    -1.0328990391    -4.0394625288
  118      H     -17.3973666204    -1.0535276069    -3.4625209728
  119      C     -15.2458196519    -0.9935644553    -3.4156839235
  120      H     -15.1755910222    -0.9842062390    -2.3356331928
  121      C     -14.0872783611    -0.9649511607    -4.1677471268
  122      H     -13.1335089337    -0.9343052352    -3.6607063814
  123      C     -14.1681140588    -1.0262056981    -8.4037308621
  124      C     -14.1123498017    -1.0616158271    -9.7937944467
  125      H     -15.0385729760    -1.0964183476   -10.3540761678
  126      C     -12.9197306895    -1.0517975609   -10.4941358715
  127      H     -12.9192729881    -1.0808557033   -11.5754168883
  128      C     -11.7334204319    -1.0029190173    -9.7799839636
  129      H     -10.7816965230    -0.9940099354   -10.2956164072
  130      C     -11.7531821508    -0.9647780218    -8.3992489547
  131      H     -10.8152981055    -0.9256860377    -7.8644796353
  132      C      -9.0260279778    -3.2383702016    -4.4608159294
  133      H      -9.7026138343    -4.0008942065    -4.0654670962
  134      H      -8.2544003197    -3.1037409020    -3.6984035191
  135      C      -9.4868184081     1.8053210580    -4.1488562184
  136      H      -9.7305351797     2.5520934866    -4.9086478940
  137      H      -8.3965275839     1.8108466280    -4.0648208099
  138      C     -15.5256762797    -1.0333957629    -7.7226697669
  139      C     -10.1055655849     2.2192375667    -2.8150995356
  140      H      -9.8544456963     1.5084675915    -2.0272500664
  141      H      -9.7483916499     3.2014308361    -2.5042023866
  142      H     -11.1931431036     2.2649825721    -2.8860697197
  143      C      -8.3838221129    -3.7521690839    -5.7480985474
  144      H      -7.6702203016    -3.0311246750    -6.1480555865
  145      H      -9.1361233734    -3.9355880452    -6.5162899121
  146      H      -7.8504292015    -4.6868575157    -5.5735325551
  147      C     -16.2936966046    -2.2992022435    -8.1434497029
  148      H     -15.7517422989    -3.1991383019    -7.8528758872
  149      H     -16.4439885150    -2.3312600296    -9.2232343490
  150      H     -17.2811164380    -2.3373713068    -7.6818092367
  151      C     -16.3147116107     0.2118435631    -8.1650565386
  152      H     -15.7877079963     1.1256056735    -7.8903926617
  153      H     -16.4644101214     0.2218804675    -9.2456451646
  154      H     -17.3015758229     0.2402630141    -7.7011192616
 ----------------------------------------------------------------

   14   -3317.8094296803      6.13e-10  Convergence criterion met
 Total energy in the final basis set =    -3317.8094296803
 Final energy is   -3317.80942968027
 **  OPTIMIZATION CONVERGED  **

                    Orbital Energies (a.u.)
 --------------------------------------------------------------

 Alpha MOs
 -- Occupied --
-14.675 -14.675 -10.492 -10.492 -10.492 -10.491 -10.485 -10.485
-10.468 -10.468 -10.467 -10.467 -10.466 -10.466 -10.466 -10.466
-10.466 -10.466 -10.465 -10.465 -10.464 -10.464 -10.463 -10.463
-10.463 -10.463 -10.462 -10.462 -10.460 -10.460 -10.460 -10.460
-10.459 -10.458 -10.457 -10.457 -10.457 -10.456 -10.456 -10.456
-10.449 -10.449 -10.449 -10.449 -10.449 -10.449 -10.444 -10.444
-10.443 -10.443 -10.443 -10.442 -10.442 -10.442 -10.442 -10.442
-10.442 -10.442 -10.440 -10.439 -10.439 -10.439 -10.439 -10.439
-10.438 -10.438 -10.438 -10.438 -10.438 -10.437 -10.435 -10.435
-10.435 -10.434 -10.433 -10.432 -10.423 -10.423 -10.423 -10.423
-10.423 -10.422 -10.422 -10.422  -6.956  -6.954  -1.088  -1.087
 -1.019  -1.018  -0.972  -0.972  -0.965  -0.962  -0.957  -0.957
 -0.951  -0.950  -0.935  -0.935  -0.912  -0.907  -0.907  -0.904
 -0.895  -0.893  -0.871  -0.869  -0.858  -0.857  -0.849  -0.849
 -0.848  -0.848  -0.834  -0.834  -0.828  -0.826  -0.822  -0.815
 -0.815  -0.814  -0.814  -0.808  -0.806  -0.805  -0.790  -0.789
 -0.767  -0.766  -0.738  -0.733  -0.729  -0.723  -0.722  -0.721
 -0.719  -0.717  -0.707  -0.707  -0.706  -0.706  -0.692  -0.691
 -0.688  -0.681  -0.674  -0.668  -0.668  -0.668  -0.652  -0.651
 -0.639  -0.637  -0.635  -0.635  -0.614  -0.614  -0.614  -0.614
 -0.598  -0.597  -0.593  -0.590  -0.587  -0.586  -0.585  -0.577
 -0.576  -0.561  -0.560  -0.555  -0.549  -0.545  -0.535  -0.534
 -0.533  -0.531  -0.530  -0.527  -0.523  -0.522  -0.522  -0.519
 -0.514  -0.511  -0.505  -0.504  -0.504  -0.503  -0.501  -0.497
 -0.497  -0.496  -0.495  -0.494  -0.492  -0.489  -0.489  -0.489
 -0.487  -0.487  -0.487  -0.485  -0.479  -0.479  -0.479  -0.477
 -0.477  -0.475  -0.475  -0.474  -0.472  -0.469  -0.463  -0.460
 -0.456  -0.455  -0.450  -0.449  -0.447  -0.444  -0.444  -0.442
 -0.439  -0.438  -0.436  -0.436  -0.435  -0.429  -0.428  -0.428
 -0.428  -0.425  -0.424  -0.424  -0.421  -0.420  -0.414  -0.414
 -0.410  -0.406  -0.406  -0.405  -0.400  -0.399  -0.398  -0.397
 -0.397  -0.396  -0.395  -0.395  -0.394  -0.392  -0.392  -0.391
 -0.389  -0.387  -0.383  -0.376  -0.376  -0.372  -0.371  -0.370
 -0.368  -0.366  -0.364  -0.364  -0.358  -0.354  -0.351  -0.345
 -0.322  -0.317  -0.298  -0.298  -0.297  -0.296  -0.288  -0.288
 -0.286  -0.282  -0.282  -0.282  -0.281  -0.279  -0.279  -0.264
 -0.260  -0.258  -0.221  -0.221

          Ground-State Mulliken Net Atomic Charges

     Atom                 Charge (a.u.)
  ----------------------------------------
      1 N                    -0.719423
      2 C                     0.313643
      3 C                     0.308105
      4 C                     0.135723
      5 C                    -0.303791
      6 H                     0.222205
      7 C                    -0.245067
      8 H                     0.224955
      9 C                    -0.245951
     10 H                     0.228241
     11 C                    -0.319655
     12 H                     0.256956
     13 C                     0.137984
     14 C                    -0.303757
     15 H                     0.222317
     16 C                    -0.244738
     17 H                     0.224740
     18 C                    -0.245321
     19 H                     0.224511
     20 C                    -0.315192
     21 H                     0.257498
     22 C                     0.186370
     23 C                    -0.309994
     24 H                     0.236143
     25 C                    -0.294134
     26 H                     0.236986
     27 C                     0.060129
     28 C                     0.058147
     29 C                    -0.216000
     30 C                    -0.555862
     31 H                     0.241860
     32 H                     0.255498
     33 C                    -0.555531
     34 H                     0.258192
     35 H                     0.242016
     36 C                    -0.204241
     37 C                    -0.652536
     38 H                     0.239840
     39 H                     0.226703
     40 H                     0.222062
     41 C                    -0.650991
     42 H                     0.225747
     43 H                     0.240020
     44 H                     0.221786
     45 C                    -0.606710
     46 H                     0.234717
     47 H                     0.222050
     48 H                     0.221728
     49 C                    -0.612189
     50 H                     0.235259
     51 H                     0.222510
     52 H                     0.222392
     53 B                     0.667971
     54 C                    -0.151383
     55 C                    -0.400451
     56 H                     0.237977
     57 C                     0.104138
     58 C                     0.079203
     59 C                    -0.387304
     60 H                     0.237842
     61 C                    -0.152403
     62 C                     0.189380
     63 C                    -0.391469
     64 H                     0.235982
     65 C                    -0.063723
     66 C                     0.238337
     67 C                     0.188891
     68 C                    -0.382193
     69 H                     0.234928
     70 C                    -0.218172
     71 H                     0.243669
     72 C                    -0.343993
     73 H                     0.239523
     74 C                    -0.339652
     75 H                     0.239180
     76 C                    -0.220886
     77 H                     0.244103
     78 C                    -0.150586
     79 C                    -0.395629
     80 H                     0.243305
     81 C                     0.103162
     82 C                     0.079665
     83 C                    -0.386264
     84 H                     0.237396
     85 C                    -0.152364
     86 C                     0.190488
     87 C                    -0.393715
     88 H                     0.235877
     89 C                    -0.064617
     90 C                     0.236712
     91 C                     0.189820
     92 C                    -0.382743
     93 H                     0.234138
     94 C                    -0.217701
     95 H                     0.242390
     96 C                    -0.343407
     97 H                     0.239624
     98 C                    -0.338868
     99 H                     0.239246
    100 C                    -0.220375
    101 H                     0.243863
    102 B                     0.671762
    103 C                    -0.228070
    104 C                     0.059898
    105 C                    -0.302203
    106 H                     0.236337
    107 C                     0.191687
    108 C                    -0.300302
    109 H                     0.237727
    110 C                     0.060718
    111 N                    -0.720081
    112 C                     0.311912
    113 C                     0.312387
    114 C                     0.135330
    115 C                    -0.303321
    116 H                     0.222360
    117 C                    -0.245503
    118 H                     0.225086
    119 C                    -0.244929
    120 H                     0.227048
    121 C                    -0.317535
    122 H                     0.255190
    123 C                     0.135307
    124 C                    -0.302818
    125 H                     0.222063
    126 C                    -0.245364
    127 H                     0.224957
    128 C                    -0.244233
    129 H                     0.225842
    130 C                    -0.316551
    131 H                     0.255225
    132 C                    -0.554289
    133 H                     0.242110
    134 H                     0.258518
    135 C                    -0.554592
    136 H                     0.242315
    137 H                     0.256947
    138 C                    -0.205661
    139 C                    -0.651613
    140 H                     0.238020
    141 H                     0.226388
    142 H                     0.222256
    143 C                    -0.648767
    144 H                     0.233778
    145 H                     0.221767
    146 H                     0.227608
    147 C                    -0.610261
    148 H                     0.235365
    149 H                     0.221861
    150 H                     0.222394
    151 C                    -0.607243
    152 H                     0.234636
    153 H                     0.221573
    154 H                     0.222100
  ----------------------------------------
  Sum of atomic charges =     0.000000

                    Cartesian Multipole Moments
 -----------------------------------------------------------------
    Charge (ESU x 10^10)
                 0.0000
    Dipole Moment (Debye)
         X      -0.2608      Y      -0.5428      Z       0.1731
       Tot       0.6266
    Quadrupole Moments (Debye-Ang)
        XX    -466.0848     XY      10.7327     YY    -506.2893
        XZ     -20.8008     YZ     -11.2073     ZZ    -437.6871

 Total job time:  176544.94s(wall), 635388.53s(cpu)
        *  Thank you very much for using Q-Chem.  Have a nice day.  *
