 Q-Chem 5.0, Q-Chem, Inc., Pleasanton, CA (2017)
 Q-Chem 5.0.1 for Intel X86 EM64T Linux

User input:
--------------------------------------------------------------
$rem
threads 4
jobtype	opt
method PBEh-3c
basis def2-mSVP
mem_static	1024
mem_total	4000
sym_ignore	true
scf_convergence	9
solvent_method	pcm
$end

$molecule
read gsopt.mol
$end

$solvent
dielectric	2.03
$end

$pcm
theory iefpcm
$end
--------------------------------------------------------------

   17   -2925.5466324419      4.48E-10 Convergence criterion met
 Total energy in the final basis set = -2925.54663244
   14   -2925.5468767773      8.35E-10 Convergence criterion met
 Total energy in the final basis set = -2925.54687678
   15   -2925.5464266700      5.32E-10 Convergence criterion met
 Total energy in the final basis set = -2925.54642667
   14   -2925.5466669330      7.30E-10 Convergence criterion met
 Total energy in the final basis set = -2925.54666693
   14   -2925.5467410280      7.32E-10 Convergence criterion met
 Total energy in the final basis set = -2925.54674103
   14   -2925.5467523386      6.59E-10 Convergence criterion met
 Total energy in the final basis set = -2925.54675234
   14   -2925.5466857646      5.64E-10 Convergence criterion met
 Total energy in the final basis set = -2925.54668576
   14   -2925.5467221470      5.54E-10 Convergence criterion met
 Total energy in the final basis set = -2925.54672215
   14   -2925.5467293337      5.29E-10 Convergence criterion met
 Total energy in the final basis set = -2925.54672933
   14   -2925.5467437409      5.31E-10 Convergence criterion met
 Total energy in the final basis set = -2925.54674374
   14   -2925.5467693762      5.27E-10 Convergence criterion met
 Total energy in the final basis set = -2925.54676938
   14   -2925.5467789295      5.17E-10 Convergence criterion met
 Total energy in the final basis set = -2925.54677893

             Standard Nuclear Orientation (Angstroms)
    I     Atom           X                Y                Z
 ----------------------------------------------------------------
    1      N      -0.1297484139    -0.0354268049     0.1734354027
    2      C      -0.4008051460     0.1726422741     1.5109515395
    3      C       1.2378784124     0.0122932780    -0.0089396994
    4      C      -1.6338288854     0.2438058035     2.1496478562
    5      H      -2.5607029412     0.1187633239     1.6052337689
    6      C      -1.6342042137     0.4856986793     3.5111388981
    7      H      -2.5789771959     0.5461943129     4.0357764255
    8      C       1.9676452042    -0.1534303418    -1.1803124472
    9      H       1.4803751357    -0.3479077589    -2.1268821472
   10      C       3.3446724080    -0.0607075556    -1.0924174777
   11      H       3.9395892403    -0.1826924100    -1.9882795039
   12      C       3.9821023756     0.1852875409     0.1276903150
   13      H       5.0612101852     0.2540240600     0.1604725772
   14      C       3.2472498737     0.3379831066     1.2892100283
   15      H       3.7454002622     0.5232360849     2.2325854115
   16      C       1.8602335225     0.2503909049     1.2279539772
   17      C      -0.4418460056     0.6565328273     4.2211134235
   18      H      -0.4781468057     0.8434294556     5.2860091650
   19      C       0.7786768793     0.5944222661     3.5740036350
   20      H       1.6993621838     0.7363711883     4.1257077625
   21      C       0.8068102820     0.3528593580     2.2041132113
   22      C      -1.0977196578    -0.2213087056    -0.8390854889
   23      C      -1.2004917538     0.6889650758    -1.8815397431
   24      H      -0.5368262973     1.5451485847    -1.9124294025
   25      C      -1.9551896842    -1.3108885317    -0.7843603238
   26      H      -1.8581473760    -2.0268130446     0.0231860335
   27      C      -2.9308333029    -1.4880691313    -1.7577641069
   28      C      -2.1577965822     0.5139857144    -2.8748456823
   29      C      -3.0375385060    -0.5718976472    -2.8112466806
   30      C      -3.8643066295    -2.6646748313    -1.6900853824
   31      H      -3.6901849048    -3.2709905592    -0.8018218078
   32      H      -4.9087237927    -2.3450818431    -1.6688378495
   33      H      -3.7468882740    -3.3151693804    -2.5592984413
   34      C      -2.2660626186     1.4940744524    -4.0089340839
   35      H      -1.5272807500     2.2907478725    -3.9301434546
   36      H      -3.2522611619     1.9626464468    -4.0381213951
   37      H      -2.1177377880     1.0023932799    -4.9730491778
   38      B      -4.1720788088    -0.7652417487    -3.8832697602
   39      C      -5.5557021341    -0.0843593867    -3.6595858980
   40      C      -5.7766206725     0.7280223579    -2.5414898173
   41      H      -4.9722473412     0.8989043930    -1.8343674304
   42      C      -7.0219103897     1.2998483591    -2.3335371869
   43      C      -8.0655292367     1.0617098712    -3.2547155534
   44      C      -7.8611463584     0.2583315307    -4.3596248673
   45      H      -8.6725021247     0.0646164629    -5.0533033485
   46      C      -6.6114894393    -0.3213446167    -4.5736946446
   47      C      -9.2638769999     1.7519770588    -2.7909840349
   48      C     -10.5509900198     1.8683363961    -3.2476133288
   49      H     -10.8792885177     1.3929060156    -4.1637612692
   50      C      -8.9067045537     2.3886122998    -1.5906266266
   51      C      -9.7885076501     3.1383755568    -0.8202259993
   52      C      -7.5581997911     2.1486043155    -1.2644967813
   53      C      -7.0680590750     2.6926391254    -0.1069168862
   54      H      -6.0418360522     2.5450394873     0.2051257812
   55      C     -11.4687206979     2.6299547888    -2.4874498035
   56      H     -12.4859368126     2.7233953549    -2.8449943102
   57      C     -11.1124948608     3.2494865058    -1.3117918678
   58      H     -11.8489728901     3.8204768028    -0.7597103120
   59      C      -7.9385821356     3.4655586620     0.6994226981
   60      H      -7.5482859599     3.8933166626     1.6134809789
   61      C      -9.2548629675     3.6901778529     0.3683436735
   62      H      -9.8820640830     4.2860976810     1.0199679000
   63      B      -6.3998908565    -1.2612468096    -5.7866775182
   64      C      -5.0055654203    -1.8956362263    -6.0333978123
   65      C      -4.8197090070    -2.7398438670    -7.1271168264
   66      H      -5.6382983124    -2.9238461323    -7.8141858242
   67      C      -3.6019865114    -3.3614070208    -7.3186779416
   68      C      -2.5343493630    -3.1472330754    -6.4198027247
   69      C      -2.7088586171    -2.3020828800    -5.3352667376
   70      H      -1.8982511868    -2.1387292950    -4.6333346949
   71      C      -3.9410840451    -1.6711645643    -5.1277930230
   72      C      -1.4064218323    -3.9746301423    -6.8626429083
   73      C      -0.1355605944    -4.2219608877    -6.4145519540
   74      H       0.2668794903    -3.7351019233    -5.5350707000
   75      C      -1.8500753659    -4.6594365755    -8.0112768983
   76      C      -1.0934275283    -5.5815176727    -8.7265195722
   77      C      -3.1756251497    -4.3204604784    -8.3325310178
   78      C      -3.7725457586    -4.9181794820    -9.4122910265
   79      H      -4.7932234516    -4.6960612497    -9.6994775811
   80      C       0.2161517321    -5.8142091287    -8.2436165597
   81      H       0.8645547941    -6.5189910940    -8.7495829587
   82      C       0.6645074586    -5.1491723833    -7.1259946540
   83      H       1.6673376508    -5.3429072649    -6.7688643128
   84      C      -3.0243222475    -5.8561207701   -10.1611881648
   85      H      -3.4929481253    -6.3309910271   -11.0134172378
   86      C      -1.7279420688    -6.1860606029    -9.8395043018
   87      H      -1.1939279918    -6.9140611205   -10.4379769985
   88      C      -7.5922081483    -1.6438249074    -6.7388570800
   89      C      -7.8597150136    -0.9058691700    -7.8978304466
   90      C      -8.8648899721    -1.3171347756    -8.7666513670
   91      H      -9.0517645010    -0.7688174485    -9.6827891235
   92      C      -9.6138872374    -2.4479146995    -8.4821365932
   93      C      -9.3738626805    -3.1651201688    -7.3198086683
   94      H      -9.9762745435    -4.0387867804    -7.0983714348
   95      C      -8.3633803814    -2.7777875689    -6.4505448217
   96      N     -10.6060131799    -2.8989837897    -9.3799656182
   97      C     -10.5972817095    -4.1295078985   -10.0038839486
   98      C     -11.8005333044    -2.2680126207    -9.6631639005
   99      C     -12.2759188851    -1.0375850299    -9.2272456607
  100      H     -11.6874223590    -0.4007869989    -8.5801575293
  101      C     -13.5384572923    -0.6546757248    -9.6462766253
  102      H     -13.9336441848     0.2990461587    -9.3213814071
  103      C      -9.6150004578    -5.1142303074   -10.0045247248
  104      H      -8.6876789271    -4.9898326086    -9.4612357569
  105      C      -9.8647256043    -6.2698373614   -10.7237547927
  106      H      -9.1173627826    -7.0526727741   -10.7373696639
  107      C     -11.0575449888    -6.4500786967   -11.4307166641
  108      H     -11.2191206332    -7.3675946233   -11.9808095879
  109      C     -12.0278548013    -5.4654791876   -11.4297169148
  110      H     -12.9517559675    -5.6040555763   -11.9777373150
  111      C     -11.8006430561    -4.2953514355   -10.7115607606
  112      C     -14.3162621991    -1.4707870631   -10.4734064817
  113      H     -15.2997981979    -1.1385695226   -10.7780813853
  114      C     -13.8400051977    -2.6972520004   -10.8977842715
  115      H     -14.4450833161    -3.3344383825   -11.5311514519
  116      C     -12.5735864494    -3.1036758166   -10.4908934571
  117      C      -8.0948536276    -3.5842112936    -5.2111625457
  118      H      -8.8008320943    -4.4074174284    -5.1081978133
  119      H      -8.1688301046    -2.9713982851    -4.3105245554
  120      H      -7.0901180548    -4.0129049186    -5.2259792567
  121      C      -7.0371902572     0.3089349442    -8.2218052454
  122      H      -7.3501005007     0.7702187598    -9.1578313632
  123      H      -7.1168856731     1.0656548360    -7.4386360682
  124      H      -5.9783523892     0.0580351263    -8.3177395885
 ----------------------------------------------------------------

   14   -2925.5467790196      5.21E-10 Convergence criterion met
 Total energy in the final basis set = -2925.54677902
 Final energy is   -2925.54677901962
 **  OPTIMIZATION CONVERGED  **

                    Orbital Energies (a.u.)
 --------------------------------------------------------------

 Alpha MOs
 -- Occupied --
-14.690 -14.689 -10.493 -10.492 -10.486 -10.486 -10.486 -10.486
-10.469 -10.469 -10.467 -10.467 -10.467 -10.467 -10.467 -10.467
-10.467 -10.467 -10.465 -10.465 -10.464 -10.464 -10.464 -10.464
-10.463 -10.463 -10.462 -10.462 -10.462 -10.462 -10.461 -10.461
-10.461 -10.461 -10.460 -10.460 -10.458 -10.457 -10.449 -10.449
-10.449 -10.448 -10.448 -10.448 -10.448 -10.448 -10.448 -10.448
-10.448 -10.447 -10.447 -10.447 -10.447 -10.447 -10.446 -10.446
-10.446 -10.446 -10.446 -10.446 -10.441 -10.440 -10.439 -10.439
-10.439 -10.439 -10.439 -10.439 -10.433 -10.433 -10.433 -10.432
-10.432 -10.432  -6.957  -6.955  -1.109  -1.109  -1.020  -1.019
 -0.978  -0.977  -0.966  -0.963  -0.951  -0.950  -0.947  -0.947
 -0.936  -0.936  -0.913  -0.905  -0.889  -0.888  -0.881  -0.881
 -0.862  -0.859  -0.855  -0.852  -0.849  -0.849  -0.846  -0.845
 -0.826  -0.818  -0.816  -0.810  -0.809  -0.809  -0.809  -0.809
 -0.776  -0.775  -0.772  -0.772  -0.739  -0.737  -0.732  -0.729
 -0.727  -0.724  -0.699  -0.696  -0.691  -0.687  -0.687  -0.682
 -0.678  -0.669  -0.656  -0.656  -0.654  -0.652  -0.650  -0.649
 -0.645  -0.643  -0.600  -0.599  -0.595  -0.594  -0.594  -0.591
 -0.588  -0.587  -0.587  -0.578  -0.577  -0.573  -0.573  -0.558
 -0.557  -0.553  -0.547  -0.546  -0.531  -0.530  -0.526  -0.522
 -0.519  -0.519  -0.517  -0.512  -0.506  -0.503  -0.502  -0.500
 -0.499  -0.499  -0.498  -0.494  -0.492  -0.492  -0.491  -0.488
 -0.488  -0.487  -0.487  -0.486  -0.483  -0.482  -0.480  -0.480
 -0.476  -0.475  -0.473  -0.472  -0.471  -0.470  -0.468  -0.467
 -0.466  -0.458  -0.449  -0.444  -0.443  -0.443  -0.442  -0.433
 -0.429  -0.429  -0.428  -0.424  -0.424  -0.424  -0.421  -0.415
 -0.414  -0.413  -0.408  -0.407  -0.401  -0.399  -0.398  -0.397
 -0.397  -0.397  -0.396  -0.395  -0.394  -0.392  -0.391  -0.390
 -0.385  -0.377  -0.375  -0.372  -0.366  -0.356  -0.353  -0.348
 -0.329  -0.329  -0.324  -0.318  -0.299  -0.299  -0.298  -0.297
 -0.289  -0.286  -0.286  -0.285  -0.285  -0.266  -0.261  -0.259
 -0.254  -0.253  -0.239  -0.238

          Ground-State Mulliken Net Atomic Charges

     Atom                 Charge (a.u.)
  ----------------------------------------
      1 N                    -0.737412
      2 C                     0.337723
      3 C                     0.339779
      4 C                    -0.290026
      5 H                     0.245360
      6 C                    -0.249284
      7 H                     0.229681
      8 C                    -0.290215
      9 H                     0.245199
     10 C                    -0.249359
     11 H                     0.229829
     12 C                    -0.242428
     13 H                     0.227224
     14 C                    -0.354975
     15 H                     0.220254
     16 C                     0.088055
     17 C                    -0.242219
     18 H                     0.227149
     19 C                    -0.355303
     20 H                     0.220113
     21 C                     0.091282
     22 C                     0.309721
     23 C                    -0.351989
     24 H                     0.245184
     25 C                    -0.359472
     26 H                     0.245381
     27 C                     0.041519
     28 C                     0.050765
     29 C                    -0.208494
     30 C                    -0.769772
     31 H                     0.249301
     32 H                     0.250754
     33 H                     0.251742
     34 C                    -0.765470
     35 H                     0.247719
     36 H                     0.250657
     37 H                     0.248185
     38 B                     0.708205
     39 C                    -0.153723
     40 C                    -0.393742
     41 H                     0.238438
     42 C                     0.106144
     43 C                     0.078467
     44 C                    -0.385166
     45 H                     0.236709
     46 C                    -0.155765
     47 C                     0.188551
     48 C                    -0.381401
     49 H                     0.233551
     50 C                    -0.061018
     51 C                     0.240752
     52 C                     0.189444
     53 C                    -0.390705
     54 H                     0.234788
     55 C                    -0.218437
     56 H                     0.242116
     57 C                    -0.338152
     58 H                     0.236781
     59 C                    -0.215844
     60 H                     0.241991
     61 C                    -0.342657
     62 H                     0.237087
     63 B                     0.705205
     64 C                    -0.152184
     65 C                    -0.381790
     66 H                     0.238844
     67 C                     0.080250
     68 C                     0.102557
     69 C                    -0.396663
     70 H                     0.236812
     71 C                    -0.158045
     72 C                     0.189907
     73 C                    -0.389899
     74 H                     0.234368
     75 C                    -0.062388
     76 C                     0.239235
     77 C                     0.189502
     78 C                    -0.381125
     79 H                     0.233714
     80 C                    -0.341805
     81 H                     0.237074
     82 C                    -0.215885
     83 H                     0.241919
     84 C                    -0.218856
     85 H                     0.242495
     86 C                    -0.337702
     87 H                     0.236781
     88 C                    -0.215229
     89 C                     0.051722
     90 C                    -0.352550
     91 H                     0.242331
     92 C                     0.302931
     93 C                    -0.348737
     94 H                     0.245947
     95 C                     0.042884
     96 N                    -0.735409
     97 C                     0.338758
     98 C                     0.342624
     99 C                    -0.290815
    100 H                     0.242476
    101 C                    -0.248347
    102 H                     0.229342
    103 C                    -0.287708
    104 H                     0.242753
    105 C                    -0.248299
    106 H                     0.229217
    107 C                    -0.242914
    108 H                     0.227424
    109 C                    -0.351689
    110 H                     0.220031
    111 C                     0.085260
    112 C                    -0.242799
    113 H                     0.227276
    114 C                    -0.351380
    115 H                     0.220128
    116 C                     0.085568
    117 C                    -0.768472
    118 H                     0.249572
    119 H                     0.251167
    120 H                     0.250557
    121 C                    -0.764222
    122 H                     0.247377
    123 H                     0.248197
    124 H                     0.250132
  ----------------------------------------
  Sum of atomic charges =     0.000000

                    Cartesian Multipole Moments
 -----------------------------------------------------------------
    Charge (ESU x 10^10)
                 0.0000
    Dipole Moment (Debye)
         X      -0.1691      Y       0.0790      Z      -0.0322
       Tot       0.1894
    Quadrupole Moments (Debye-Ang)
        XX    -409.2684     XY     -29.6482     YY    -411.9774
        XZ     -28.1912     YZ      22.8712     ZZ    -422.6168

 Total job time:  53776.24s(wall), 129772.43s(cpu)
        *  Thank you very much for using Q-Chem.  Have a nice day.  *
