 Q-Chem 5.0, Q-Chem, Inc., Pleasanton, CA (2017)
 Q-Chem 5.0.1 for Intel X86 EM64T Linux

User input:
--------------------------------------------------------------
$rem
threads 4
jobtype	opt
method PBEh-3c
basis def2-mSVP
mem_static	1024
mem_total	4000
sym_ignore	true
scf_convergence	9
solvent_method	pcm
$end

$molecule
read gsopt.mol
$end

$solvent
dielectric	2.38
$end

$pcm
theory iefpcm
$end
--------------------------------------------------------------

   17   -2925.5495576234      4.31E-10 Convergence criterion met
 Total energy in the final basis set = -2925.54955762
   14   -2925.5498249616      7.94E-10 Convergence criterion met
 Total energy in the final basis set = -2925.54982496
   14   -2925.5493936290      9.19E-10 Convergence criterion met
 Total energy in the final basis set = -2925.54939363
   14   -2925.5496194650      8.03E-10 Convergence criterion met
 Total energy in the final basis set = -2925.54961946
   14   -2925.5496950163      8.06E-10 Convergence criterion met
 Total energy in the final basis set = -2925.54969502
   14   -2925.5497072494      7.19E-10 Convergence criterion met
 Total energy in the final basis set = -2925.54970725
   14   -2925.5496414430      6.19E-10 Convergence criterion met
 Total energy in the final basis set = -2925.54964144
   14   -2925.5496796163      6.06E-10 Convergence criterion met
 Total energy in the final basis set = -2925.54967962
   14   -2925.5496883884      5.89E-10 Convergence criterion met
 Total energy in the final basis set = -2925.54968839
   14   -2925.5497039874      5.91E-10 Convergence criterion met
 Total energy in the final basis set = -2925.54970399
   14   -2925.5497270998      5.86E-10 Convergence criterion met
 Total energy in the final basis set = -2925.54972710
   14   -2925.5497373246      5.76E-10 Convergence criterion met
 Total energy in the final basis set = -2925.54973732

             Standard Nuclear Orientation (Angstroms)
    I     Atom           X                Y                Z
 ----------------------------------------------------------------
    1      N      -0.1297773991    -0.0364830894     0.1737879856
    2      C      -0.4002995286     0.1736206482     1.5109983413
    3      C       1.2379194951     0.0069549071    -0.0085633899
    4      C      -1.6332618957     0.2488494126     2.1495740760
    5      H      -2.5605717861     0.1258340276     1.6053972011
    6      C      -1.6330008851     0.4918943685     3.5109517943
    7      H      -2.5776642787     0.5555474210     4.0354487514
    8      C       1.9672707832    -0.1619771229    -1.1798656404
    9      H       1.4796305070    -0.3555946100    -2.1264503509
   10      C       3.3446559115    -0.0733721636    -1.0919363985
   11      H       3.9392228849    -0.1979270536    -1.9876992408
   12      C       3.9828687337     0.1717935546     0.1281164547
   13      H       5.0622091167     0.2372634027     0.1608449228
   14      C       3.2484496626     0.3278238411     1.2895900592
   15      H       3.7470445858     0.5124759614     2.2328789167
   16      C       1.8610520706     0.2443384497     1.2282051664
   17      C      -0.4400797477     0.6598809389     4.2209818563
   18      H      -0.4759787741     0.8477672743     5.2857456292
   19      C       0.7804423328     0.5936669899     3.5740631446
   20      H       1.7015641903     0.7333372595     4.1256696751
   21      C       0.8078393709     0.3508889261     2.2042328130
   22      C      -1.0983126625    -0.2215739504    -0.8386697022
   23      C      -1.2005177270     0.6890740020    -1.8808545579
   24      H      -0.5362897901     1.5448328255    -1.9119910615
   25      C      -1.9562840692    -1.3107677613    -0.7838440814
   26      H      -1.8599347555    -2.0268648989     0.0236558624
   27      C      -2.9320135972    -1.4873368298    -1.7573839240
   28      C      -2.1580700826     0.5147612133    -2.8741550561
   29      C      -3.0382597782    -0.5708213291    -2.8106766478
   30      C      -3.8657177982    -2.6637657578    -1.6899193874
   31      H      -3.6922132566    -3.2696823837    -0.8012687224
   32      H      -4.9101327867    -2.3440902019    -1.6696249196
   33      H      -3.7476681025    -3.3145942518    -2.5588107240
   34      C      -2.2657239995     1.4951881564    -4.0079961353
   35      H      -1.5262021407     2.2911505314    -3.9290391294
   36      H      -3.2515505035     1.9645776306    -4.0368542663
   37      H      -2.1180186464     1.0035709986    -4.9722471079
   38      B      -4.1726562831    -0.7638575763    -3.8829527119
   39      C      -5.5563557812    -0.0828615254    -3.6595922066
   40      C      -5.7772597796     0.7300279319    -2.5418064409
   41      H      -4.9732076220     0.9013552191    -1.8344424317
   42      C      -7.0225406092     1.3021962214    -2.3343022893
   43      C      -8.0660867544     1.0639667797    -3.2556554485
   44      C      -7.8617423888     0.2599838732    -4.3602145725
   45      H      -8.6732669176     0.0664976396    -5.0537395312
   46      C      -6.6121374071    -0.3201154154    -4.5737643695
   47      C      -9.2643689427     1.7547717553    -2.7924969871
   48      C     -10.5514170350     1.8713368671    -3.2495763666
   49      H     -10.8796043372     1.3957663912    -4.1657057383
   50      C      -8.9072121441     2.3917181459    -1.5922333025
   51      C      -9.7890376501     3.1419824249    -0.8222097951
   52      C      -7.5588034499     2.1514711054    -1.2656437740
   53      C      -7.0686939773     2.6956840438    -0.1080101670
   54      H      -6.0425958903     2.5478133048     0.2043528250
   55      C     -11.4691145865     2.6335259050    -2.4897700185
   56      H     -12.4862199684     2.7271696139    -2.8476135107
   57      C     -11.1129814253     3.2533548267    -1.3140950463
   58      H     -11.8493694908     3.8247359938    -0.7622779111
   59      C      -7.9393112186     3.4690917423     0.6979186856
   60      H      -7.5491203594     3.8969415809     1.6119949189
   61      C      -9.2555657315     3.6940248422     0.3664347289
   62      H      -9.8828557433     4.2902692346     1.0176972298
   63      B      -6.4006118182    -1.2607660947    -5.7862813699
   64      C      -5.0060895478    -1.8949347787    -6.0329120816
   65      C      -4.8201263202    -2.7393547044    -7.1265106852
   66      H      -5.6384962138    -2.9240781259    -7.8136271531
   67      C      -3.6020820216    -3.3604029427    -7.3181735692
   68      C      -2.5342349544    -3.1453547107    -6.4196390183
   69      C      -2.7089102552    -2.3001072992    -5.3351226286
   70      H      -1.8979620034    -2.1364544374    -4.6336732450
   71      C      -3.9414816440    -1.6698037483    -5.1275086728
   72      C      -1.4058779015    -3.9720941294    -6.8626502529
   73      C      -0.1345865496    -4.2183764847    -6.4148843950
   74      H       0.2678500388    -3.7309466029    -5.5357038277
   75      C      -1.8495645597    -4.6574962455    -8.0109780752
   76      C      -1.0925261070    -5.5793372401    -8.7262690122
   77      C      -3.1755065824    -4.3195134029    -8.3319047952
   78      C      -3.7725818801    -4.9180414015    -9.4112605831
   79      H      -4.7935730656    -4.6967675283    -9.6980358511
   80      C       0.2174940301    -5.8110441669    -8.2438212592
   81      H       0.8661294586    -6.5155495787    -8.7498964482
   82      C       0.6658516406    -5.1452940859    -7.1264717373
   83      H       1.6689708493    -5.3382033299    -6.7696719561
   84      C      -3.0239245353    -5.8557901893   -10.1601375852
   85      H      -3.4926149169    -6.3313323931   -11.0119729698
   86      C      -1.7270578956    -6.1847527213    -9.8388829709
   87      H      -1.1927061512    -6.9125913400   -10.4372710736
   88      C      -7.5929492673    -1.6439554875    -6.7382432187
   89      C      -7.8608572804    -0.9059448415    -7.8971510361
   90      C      -8.8661231164    -1.3175026935    -8.7658420313
   91      H      -9.0535148292    -0.7688007053    -9.6816604003
   92      C      -9.6144354651    -2.4486944195    -8.4811294450
   93      C      -9.3740342284    -3.1661203918    -7.3190091711
   94      H      -9.9756886324    -4.0403321400    -7.0975632643
   95      C      -8.3635842070    -2.7782945695    -6.4497822481
   96      N     -10.6065859717    -2.9002540007    -9.3790783218
   97      C     -10.5949433722    -4.1288319942   -10.0066008435
   98      C     -11.8031051017    -2.2718875968    -9.6591591423
   99      C     -12.2814853015    -1.0439120701    -9.2192216381
  100      H     -11.6942127194    -0.4071238651    -8.5709787851
  101      C     -13.5455206417    -0.6632431886    -9.6360828131
  102      H     -13.9429911917     0.2884846602    -9.3080699228
  103      C      -9.6098027977    -5.1108219443   -10.0109663141
  104      H      -8.6823094724    -4.9856121748    -9.4681180656
  105      C      -9.8569431872    -6.2650208695   -10.7335202791
  106      H      -9.1073465425    -7.0456821434   -10.7501476872
  107      C     -11.0500076076    -6.4465644350   -11.4400630919
  108      H     -11.2094087964    -7.3629221201   -11.9927694424
  109      C     -12.0232593073    -5.4647406104   -11.4352981772
  110      H     -12.9473147729    -5.6042325607   -11.9828738562
  111      C     -11.7985780508    -4.2960814599   -10.7137156185
  112      C     -14.3219349332    -1.4791442625   -10.4649942665
  113      H     -15.3066686719    -1.1486845891   -10.7678068193
  114      C     -13.8427497104    -2.7031756995   -10.8934321064
  115      H     -14.4465840820    -3.3402349264   -11.5281584276
  116      C     -12.5747252136    -3.1072409747   -10.4887294019
  117      C      -8.0946118707    -3.5847932650    -5.2105451002
  118      H      -8.8005445936    -4.4080255700    -5.1075246952
  119      H      -8.1683022331    -2.9720408806    -4.3098304970
  120      H      -7.0898444717    -4.0134137949    -5.2257097167
  121      C      -7.0391051248     0.3093249405    -8.2212777702
  122      H      -7.3517597821     0.7695928911    -9.1578853006
  123      H      -7.1201552293     1.0664780894    -7.4386593337
  124      H      -5.9799667523     0.0592675059    -8.3161559090
 ----------------------------------------------------------------

   14   -2925.5497367410      5.80E-10 Convergence criterion met
 Total energy in the final basis set = -2925.54973674
 Final energy is   -2925.54973674097
 **  OPTIMIZATION CONVERGED  **

                    Orbital Energies (a.u.)
 --------------------------------------------------------------

 Alpha MOs
 -- Occupied --
-14.690 -14.690 -10.493 -10.492 -10.487 -10.486 -10.486 -10.486
-10.469 -10.469 -10.467 -10.467 -10.467 -10.467 -10.467 -10.467
-10.467 -10.466 -10.465 -10.464 -10.463 -10.463 -10.463 -10.463
-10.463 -10.463 -10.462 -10.462 -10.462 -10.462 -10.460 -10.460
-10.460 -10.460 -10.460 -10.460 -10.458 -10.457 -10.449 -10.449
-10.449 -10.449 -10.449 -10.449 -10.448 -10.448 -10.448 -10.448
-10.448 -10.448 -10.447 -10.447 -10.447 -10.447 -10.447 -10.447
-10.447 -10.446 -10.446 -10.446 -10.441 -10.441 -10.440 -10.440
-10.440 -10.440 -10.439 -10.439 -10.433 -10.433 -10.432 -10.432
-10.432 -10.432  -6.957  -6.955  -1.110  -1.109  -1.020  -1.019
 -0.978  -0.977  -0.966  -0.963  -0.951  -0.951  -0.947  -0.947
 -0.935  -0.935  -0.913  -0.905  -0.889  -0.888  -0.881  -0.881
 -0.862  -0.859  -0.855  -0.853  -0.849  -0.849  -0.846  -0.846
 -0.826  -0.818  -0.815  -0.810  -0.810  -0.809  -0.809  -0.809
 -0.776  -0.775  -0.772  -0.772  -0.739  -0.737  -0.732  -0.729
 -0.727  -0.723  -0.699  -0.696  -0.691  -0.688  -0.687  -0.682
 -0.678  -0.669  -0.656  -0.656  -0.654  -0.652  -0.650  -0.649
 -0.645  -0.643  -0.600  -0.599  -0.595  -0.595  -0.593  -0.591
 -0.588  -0.588  -0.586  -0.578  -0.577  -0.573  -0.573  -0.558
 -0.557  -0.553  -0.547  -0.546  -0.531  -0.530  -0.526  -0.522
 -0.520  -0.519  -0.517  -0.512  -0.506  -0.503  -0.502  -0.500
 -0.500  -0.499  -0.498  -0.494  -0.492  -0.492  -0.491  -0.488
 -0.488  -0.487  -0.487  -0.485  -0.482  -0.482  -0.480  -0.480
 -0.475  -0.475  -0.473  -0.471  -0.471  -0.470  -0.467  -0.467
 -0.466  -0.458  -0.449  -0.444  -0.443  -0.442  -0.442  -0.433
 -0.428  -0.428  -0.428  -0.424  -0.424  -0.424  -0.421  -0.415
 -0.415  -0.414  -0.408  -0.408  -0.400  -0.399  -0.398  -0.397
 -0.397  -0.397  -0.396  -0.395  -0.395  -0.392  -0.392  -0.390
 -0.385  -0.378  -0.376  -0.372  -0.366  -0.356  -0.353  -0.348
 -0.330  -0.330  -0.324  -0.318  -0.300  -0.299  -0.298  -0.297
 -0.289  -0.286  -0.286  -0.285  -0.285  -0.266  -0.261  -0.259
 -0.255  -0.254  -0.240  -0.239

          Ground-State Mulliken Net Atomic Charges

     Atom                 Charge (a.u.)
  ----------------------------------------
      1 N                    -0.736613
      2 C                     0.337261
      3 C                     0.339253
      4 C                    -0.291732
      5 H                     0.247440
      6 C                    -0.251685
      7 H                     0.232390
      8 C                    -0.291921
      9 H                     0.247270
     10 C                    -0.251763
     11 H                     0.232516
     12 C                    -0.245204
     13 H                     0.229718
     14 C                    -0.356697
     15 H                     0.223208
     16 C                     0.086093
     17 C                    -0.245001
     18 H                     0.229651
     19 C                    -0.357002
     20 H                     0.223065
     21 C                     0.089219
     22 C                     0.308509
     23 C                    -0.352808
     24 H                     0.246863
     25 C                    -0.360189
     26 H                     0.247067
     27 C                     0.040517
     28 C                     0.049898
     29 C                    -0.208314
     30 C                    -0.770765
     31 H                     0.250628
     32 H                     0.251146
     33 H                     0.252054
     34 C                    -0.766471
     35 H                     0.249008
     36 H                     0.250974
     37 H                     0.248649
     38 B                     0.708352
     39 C                    -0.153982
     40 C                    -0.394031
     41 H                     0.239739
     42 C                     0.104631
     43 C                     0.076995
     44 C                    -0.385436
     45 H                     0.238145
     46 C                    -0.156032
     47 C                     0.187027
     48 C                    -0.382371
     49 H                     0.236321
     50 C                    -0.061296
     51 C                     0.238090
     52 C                     0.187893
     53 C                    -0.391573
     54 H                     0.237448
     55 C                    -0.220861
     56 H                     0.244644
     57 C                    -0.339335
     58 H                     0.239625
     59 C                    -0.218295
     60 H                     0.244482
     61 C                    -0.343802
     62 H                     0.239932
     63 B                     0.705359
     64 C                    -0.152444
     65 C                    -0.382084
     66 H                     0.240183
     67 C                     0.078823
     68 C                     0.101031
     69 C                    -0.396881
     70 H                     0.238222
     71 C                    -0.158343
     72 C                     0.188360
     73 C                    -0.390796
     74 H                     0.237109
     75 C                    -0.062667
     76 C                     0.236587
     77 C                     0.187956
     78 C                    -0.382053
     79 H                     0.236408
     80 C                    -0.342956
     81 H                     0.239911
     82 C                    -0.218339
     83 H                     0.244433
     84 C                    -0.221261
     85 H                     0.244984
     86 C                    -0.338888
     87 H                     0.239620
     88 C                    -0.215036
     89 C                     0.050906
     90 C                    -0.353321
     91 H                     0.244134
     92 C                     0.301701
     93 C                    -0.349518
     94 H                     0.247546
     95 C                     0.041861
     96 N                    -0.734653
     97 C                     0.338328
     98 C                     0.342158
     99 C                    -0.292674
    100 H                     0.244664
    101 C                    -0.250789
    102 H                     0.232035
    103 C                    -0.289488
    104 H                     0.244924
    105 C                    -0.250725
    106 H                     0.231920
    107 C                    -0.245682
    108 H                     0.229921
    109 C                    -0.353424
    110 H                     0.222993
    111 C                     0.083294
    112 C                    -0.245557
    113 H                     0.229767
    114 C                    -0.353121
    115 H                     0.223105
    116 C                     0.083533
    117 C                    -0.769440
    118 H                     0.250867
    119 H                     0.251486
    120 H                     0.250900
    121 C                    -0.765279
    122 H                     0.248687
    123 H                     0.248656
    124 H                     0.250504
  ----------------------------------------
  Sum of atomic charges =     0.000000

                    Cartesian Multipole Moments
 -----------------------------------------------------------------
    Charge (ESU x 10^10)
                -0.0000
    Dipole Moment (Debye)
         X      -0.1727      Y       0.0802      Z      -0.0333
       Tot       0.1933
    Quadrupole Moments (Debye-Ang)
        XX    -408.4787     XY     -30.1726     YY    -411.3360
        XZ     -28.6233     YZ      23.3040     ZZ    -422.0698

 Total job time:  46530.29s(wall), 113896.18s(cpu)
        *  Thank you very much for using Q-Chem.  Have a nice day.  *
