 Q-Chem 5.0, Q-Chem, Inc., Pleasanton, CA (2017)
 Q-Chem 5.0.1 for Intel X86 EM64T Linux

User input:
--------------------------------------------------------------
$rem
threads 4
jobtype	opt
method PBEh-3c
basis def2-mSVP
mem_static	1024
mem_total	4000
sym_ignore	true
scf_convergence	9
solvent_method	pcm
$end

$molecule
read gsopt.mol
$end

$solvent
dielectric	8.93
$end

$pcm
theory iefpcm
$end
--------------------------------------------------------------

   16   -2925.5661360390      7.34E-10 Convergence criterion met
 Total energy in the final basis set = -2925.56613604
   15   -2925.5666021797      4.45E-10 Convergence criterion met
 Total energy in the final basis set = -2925.56660218
   15   -2925.5662587529      5.62E-10 Convergence criterion met
 Total energy in the final basis set = -2925.56625875
   15   -2925.5664223868      4.55E-10 Convergence criterion met
 Total energy in the final basis set = -2925.56642239
   15   -2925.5664696959      4.76E-10 Convergence criterion met
 Total energy in the final basis set = -2925.56646970
   15   -2925.5665049534      4.49E-10 Convergence criterion met
 Total energy in the final basis set = -2925.56650495
   14   -2925.5664414484      9.74E-10 Convergence criterion met
 Total energy in the final basis set = -2925.56644145
   14   -2925.5664739237      9.57E-10 Convergence criterion met
   14   -2925.5664864397      9.51E-10 Convergence criterion met
 Total energy in the final basis set = -2925.56648644
   14   -2925.5665102025      9.65E-10 Convergence criterion met
 Total energy in the final basis set = -2925.56651020
   14   -2925.5665313819      9.54E-10 Convergence criterion met
 Total energy in the final basis set = -2925.56653138
   14   -2925.5665451384      9.46E-10 Convergence criterion met
 Total energy in the final basis set = -2925.56654514
   14   -2925.5665427820      9.48E-10 Convergence criterion met
 Total energy in the final basis set = -2925.56654278
   14   -2925.5665376047      9.50E-10 Convergence criterion met
 Total energy in the final basis set = -2925.56653760

             Standard Nuclear Orientation (Angstroms)
    I     Atom           X                Y                Z
 ----------------------------------------------------------------
    1      N      -0.1308192580    -0.0393299020     0.1762412387
    2      C      -0.4009407361     0.1828305734     1.5112559933
    3      C       1.2373518596    -0.0145808453    -0.0041191099
    4      C      -1.6345011899     0.2763995844     2.1475609634
    5      H      -2.5631923224     0.1602811970     1.6039988009
    6      C      -1.6331685278     0.5278894972     3.5079608786
    7      H      -2.5779876772     0.6058922554     4.0303864787
    8      C       1.9667667783    -0.2002876218    -1.1735977756
    9      H       1.4795866401    -0.3917944737    -2.1209912665
   10      C       3.3455688636    -0.1294451731    -1.0832340222
   11      H       3.9398857368    -0.2674042598    -1.9772889658
   12      C       3.9853128881     0.1152917786     0.1371534633
   13      H       5.0655182246     0.1664502475     0.1712065501
   14      C       3.2510707119     0.2890396878     1.2969303299
   15      H       3.7496498049     0.4738632597     2.2403469523
   16      C       1.8620719941     0.2232267074     1.2324881589
   17      C      -0.4387430472     0.6862649811     4.2194505737
   18      H      -0.4744258732     0.8810833641     5.2831109821
   19      C       0.7826950414     0.6016885574     3.5751688056
   20      H       1.7050497660     0.7337054894     4.1268509968
   21      C       0.8084215050     0.3499674243     2.2061037059
   22      C      -1.1006719387    -0.2232068029    -0.8368486135
   23      C      -1.1982242254     0.6861795582    -1.8806590874
   24      H      -0.5301605309     1.5388846300    -1.9156984474
   25      C      -1.9620289580    -1.3096839719    -0.7789662478
   26      H      -1.8711462354    -2.0241178551     0.0307507060
   27      C      -2.9376072790    -1.4851094064    -1.7534461999
   28      C      -2.1566256397     0.5131699131    -2.8739248536
   29      C      -3.0402240611    -0.5697497326    -2.8083286441
   30      C      -3.8734811292    -2.6597048547    -1.6849394450
   31      H      -3.7058440968    -3.2604737894    -0.7917603360
   32      H      -4.9176599673    -2.3387162134    -1.6733892265
   33      H      -3.7503459629    -3.3152389241    -2.5496798226
   34      C      -2.2599894720     1.4921047766    -4.0093436702
   35      H      -1.5172596819     2.2850274521    -3.9307192999
   36      H      -3.2442147744     1.9649364535    -4.0390834187
   37      H      -2.1135954456     0.9980454066    -4.9725863843
   38      B      -4.1741550489    -0.7614607570    -3.8814582149
   39      C      -5.5579594254    -0.0792613489    -3.6598529570
   40      C      -5.7789163868     0.7336271207    -2.5417226730
   41      H      -4.9776705801     0.9036881208    -1.8309761189
   42      C      -7.0233453850     1.3097100310    -2.3373103879
   43      C      -8.0648572506     1.0773963338    -3.2632056870
   44      C      -7.8608495113     0.2720923857    -4.3674152064
   45      H      -8.6725415379     0.0841778700    -5.0621649871
   46      C      -6.6127686831    -0.3135830535    -4.5766827105
   47      C      -9.2617069255     1.7735930556    -2.8041128918
   48      C     -10.5466931083     1.8974561080    -3.2669607440
   49      H     -10.8730304708     1.4259106199    -4.1858937827
   50      C      -8.9059952620     2.4062852292    -1.6007438896
   51      C      -9.7879243645     3.1585597655    -0.8318981127
   52      C      -7.5598861468     2.1588652433    -1.2686108844
   53      C      -7.0719927258     2.6963746343    -0.1061662276
   54      H      -6.0482503015     2.5415235085     0.2106828181
   55      C     -11.4638611676     2.6627510236    -2.5086137134
   56      H     -12.4788728088     2.7625604087    -2.8708614195
   57      C     -11.1097900301     3.2779260998    -1.3290178008
   58      H     -11.8453952092     3.8513769609    -0.7782233659
   59      C      -7.9432112805     3.4712427196     0.6986102557
   60      H      -7.5552666288     3.8933332460     1.6163721146
   61      C      -9.2574473010     3.7042282963     0.3616499012
   62      H      -9.8854005226     4.3010204881     1.0118443342
   63      B      -6.4022375593    -1.2580852078    -5.7869964772
   64      C      -5.0074218938    -1.8934991373    -6.0321139465
   65      C      -4.8217091577    -2.7393851742    -7.1249941942
   66      H      -5.6386341758    -2.9268648197    -7.8129773197
   67      C      -3.6026941326    -3.3595863180    -7.3164132456
   68      C      -2.5336061418    -3.1408900708    -6.4194805831
   69      C      -2.7084608018    -2.2950206354    -5.3349792108
   70      H      -1.8955510766    -2.1308079406    -4.6360459063
   71      C      -3.9422996226    -1.6667363932    -5.1269290004
   72      C      -1.4035394430    -3.9649328405    -6.8634996925
   73      C      -0.1301358477    -4.2068031088    -6.4173938052
   74      H       0.2726862031    -3.7164600222    -5.5399534521
   75      C      -1.8480460678    -4.6532248899    -8.0101941095
   76      C      -1.0898265578    -5.5747915177    -8.7255339193
   77      C      -3.1759578263    -4.3196544724    -8.3292167587
   78      C      -3.7748703557    -4.9229131616    -9.4057198960
   79      H      -4.7976933426    -4.7060550782    -9.6895245595
   80      C       0.2224361583    -5.8023654491    -8.2456267092
   81      H       0.8715148180    -6.5060636317    -8.7523411115
   82      C       0.6714279499    -5.1329368498    -7.1298258618
   83      H       1.6759562678    -5.3221827253    -6.7748797846
   84      C      -3.0247332066    -5.8605951278   -10.1542326363
   85      H      -3.4945192469    -6.3401079017   -11.0033007180
   86      C      -1.7252930285    -6.1849912706    -9.8356722448
   87      H      -1.1897886957    -6.9126760460   -10.4332954440
   88      C      -7.5947950791    -1.6436498416    -6.7378859247
   89      C      -7.8684747060    -0.9017416859    -7.8932404701
   90      C      -8.8744370655    -1.3140762475    -8.7613209817
   91      H      -9.0677392676    -0.7598633139    -9.6726446452
   92      C      -9.6156298140    -2.4504865027    -8.4788111807
   93      C      -9.3695602971    -3.1729198080    -7.3209482179
   94      H      -9.9642648086    -4.0525777155    -7.1017908376
   95      C      -8.3591858078    -2.7830244372    -6.4518352578
   96      N     -10.6087760055    -2.9033383467    -9.3770794267
   97      C     -10.5810514677    -4.1191955235   -10.0277774006
   98      C     -11.8189141337    -2.2919310277    -9.6330520616
   99      C     -12.3143788270    -1.0801361288    -9.1657588181
  100      H     -11.7325340379    -0.4437273218    -8.5120739303
  101      C     -13.5891225513    -0.7139009600    -9.5643781560
  102      H     -13.9995976004     0.2247647384    -9.2151394963
  103      C      -9.5779044330    -5.0831000453   -10.0597664204
  104      H      -8.6471407230    -4.9525173063    -9.5235740554
  105      C      -9.8117040562    -6.2279808534   -10.8023432786
  106      H      -9.0480964456    -6.9942237717   -10.8412965349
  107      C     -11.0091087795    -6.4181862491   -11.5011239027
  108      H     -11.1570520319    -7.3269631650   -12.0695674619
  109      C     -12.0007425750    -5.4546164625   -11.4687144262
  110      H     -12.9280708731    -5.6001922101   -12.0093840067
  111      C     -11.7889972889    -4.2954768100   -10.7266862887
  112      C     -14.3596212733    -1.5281969430   -10.4019092799
  113      H     -15.3526956778    -1.2090237222   -10.6896953781
  114      C     -13.8637048501    -2.7362699285   -10.8578322972
  115      H     -14.4620348108    -3.3723347467   -11.4989727000
  116      C     -12.5844327564    -3.1252649193   -10.4713479438
  117      C      -8.0839586276    -3.5941710835    -5.2169966026
  118      H      -8.7909176811    -4.4163572240    -5.1130494790
  119      H      -8.1505381827    -2.9844437315    -4.3136174828
  120      H      -7.0800884855    -4.0245863791    -5.2401045411
  121      C      -7.0554681489     0.3202065750    -8.2139260594
  122      H      -7.3654976052     0.7745919270    -9.1542109030
  123      H      -7.1509367525     1.0782684289    -7.4337717054
  124      H      -5.9932066860     0.0800218760    -8.2992876493
 ----------------------------------------------------------------

   14   -2925.5665329067      9.70E-10 Convergence criterion met
 Total energy in the final basis set = -2925.56653291
 Final energy is   -2925.56653290666
 **  OPTIMIZATION CONVERGED  **

                    Orbital Energies (a.u.)
 --------------------------------------------------------------

 Alpha MOs
 -- Occupied --
-14.693 -14.693 -10.494 -10.494 -10.491 -10.490 -10.490 -10.490
-10.470 -10.470 -10.468 -10.468 -10.467 -10.467 -10.467 -10.467
-10.466 -10.466 -10.466 -10.465 -10.463 -10.463 -10.463 -10.463
-10.463 -10.463 -10.463 -10.463 -10.463 -10.463 -10.461 -10.461
-10.459 -10.459 -10.459 -10.459 -10.459 -10.458 -10.453 -10.453
-10.453 -10.452 -10.452 -10.452 -10.451 -10.451 -10.451 -10.450
-10.450 -10.450 -10.450 -10.450 -10.449 -10.449 -10.449 -10.449
-10.449 -10.448 -10.448 -10.448 -10.442 -10.442 -10.442 -10.442
-10.442 -10.442 -10.440 -10.440 -10.434 -10.433 -10.431 -10.431
-10.431 -10.431  -6.958  -6.956  -1.113  -1.113  -1.020  -1.020
 -0.979  -0.979  -0.967  -0.964  -0.955  -0.954  -0.950  -0.949
 -0.935  -0.935  -0.914  -0.905  -0.892  -0.890  -0.881  -0.881
 -0.863  -0.859  -0.857  -0.854  -0.849  -0.849  -0.849  -0.848
 -0.827  -0.818  -0.815  -0.813  -0.812  -0.812  -0.811  -0.809
 -0.776  -0.775  -0.772  -0.772  -0.739  -0.738  -0.734  -0.729
 -0.728  -0.723  -0.701  -0.698  -0.691  -0.690  -0.690  -0.682
 -0.679  -0.670  -0.658  -0.657  -0.655  -0.652  -0.651  -0.650
 -0.646  -0.645  -0.601  -0.599  -0.596  -0.596  -0.592  -0.590
 -0.590  -0.590  -0.586  -0.578  -0.576  -0.575  -0.575  -0.559
 -0.558  -0.554  -0.547  -0.546  -0.530  -0.530  -0.528  -0.523
 -0.522  -0.521  -0.517  -0.512  -0.505  -0.504  -0.504  -0.502
 -0.501  -0.500  -0.498  -0.495  -0.494  -0.494  -0.492  -0.490
 -0.490  -0.490  -0.490  -0.485  -0.482  -0.482  -0.481  -0.481
 -0.475  -0.475  -0.473  -0.471  -0.470  -0.468  -0.467  -0.467
 -0.465  -0.457  -0.449  -0.443  -0.442  -0.442  -0.441  -0.433
 -0.429  -0.429  -0.428  -0.426  -0.426  -0.426  -0.423  -0.419
 -0.419  -0.415  -0.409  -0.408  -0.400  -0.399  -0.399  -0.398
 -0.398  -0.397  -0.396  -0.396  -0.396  -0.394  -0.392  -0.392
 -0.385  -0.380  -0.379  -0.374  -0.367  -0.357  -0.354  -0.349
 -0.334  -0.334  -0.325  -0.319  -0.304  -0.303  -0.299  -0.298
 -0.290  -0.287  -0.287  -0.286  -0.286  -0.266  -0.263  -0.260
 -0.259  -0.258  -0.243  -0.242

          Ground-State Mulliken Net Atomic Charges

     Atom                 Charge (a.u.)
  ----------------------------------------
      1 N                    -0.732258
      2 C                     0.333762
      3 C                     0.335532
      4 C                    -0.300973
      5 H                     0.259149
      6 C                    -0.264512
      7 H                     0.247473
      8 C                    -0.301224
      9 H                     0.258990
     10 C                    -0.264645
     11 H                     0.247532
     12 C                    -0.260334
     13 H                     0.243663
     14 C                    -0.365704
     15 H                     0.240179
     16 C                     0.073852
     17 C                    -0.260140
     18 H                     0.243633
     19 C                    -0.366004
     20 H                     0.240015
     21 C                     0.076721
     22 C                     0.302950
     23 C                    -0.356803
     24 H                     0.255772
     25 C                    -0.363746
     26 H                     0.256007
     27 C                     0.035371
     28 C                     0.045617
     29 C                    -0.207456
     30 C                    -0.775753
     31 H                     0.258256
     32 H                     0.252480
     33 H                     0.252779
     34 C                    -0.771838
     35 H                     0.256479
     36 H                     0.251765
     37 H                     0.250590
     38 B                     0.708369
     39 C                    -0.155711
     40 C                    -0.395110
     41 H                     0.247822
     42 C                     0.095228
     43 C                     0.067826
     44 C                    -0.386626
     45 H                     0.246890
     46 C                    -0.157461
     47 C                     0.177526
     48 C                    -0.387155
     49 H                     0.252146
     50 C                    -0.063717
     51 C                     0.221842
     52 C                     0.178360
     53 C                    -0.395719
     54 H                     0.252571
     55 C                    -0.234241
     56 H                     0.258775
     57 C                    -0.345215
     58 H                     0.255699
     59 C                    -0.231814
     60 H                     0.258394
     61 C                    -0.349468
     62 H                     0.256033
     63 B                     0.705195
     64 C                    -0.154357
     65 C                    -0.383521
     66 H                     0.248782
     67 C                     0.069866
     68 C                     0.091651
     69 C                    -0.397582
     70 H                     0.246665
     71 C                    -0.160012
     72 C                     0.178774
     73 C                    -0.395169
     74 H                     0.252619
     75 C                    -0.065050
     76 C                     0.220309
     77 C                     0.178352
     78 C                    -0.386610
     79 H                     0.252047
     80 C                    -0.348605
     81 H                     0.255969
     82 C                    -0.231920
     83 H                     0.258407
     84 C                    -0.234524
     85 H                     0.258916
     86 C                    -0.344770
     87 H                     0.255703
     88 C                    -0.213902
     89 C                     0.047081
     90 C                    -0.356669
     91 H                     0.253617
     92 C                     0.295678
     93 C                    -0.353041
     94 H                     0.255713
     95 C                     0.036412
     96 N                    -0.730329
     97 C                     0.335047
     98 C                     0.338640
     99 C                    -0.302832
    100 H                     0.256940
    101 C                    -0.264040
    102 H                     0.247146
    103 C                    -0.299304
    104 H                     0.257362
    105 C                    -0.263837
    106 H                     0.247072
    107 C                    -0.260703
    108 H                     0.243848
    109 C                    -0.362619
    110 H                     0.239996
    111 C                     0.071095
    112 C                    -0.260599
    113 H                     0.243714
    114 C                    -0.362452
    115 H                     0.240218
    116 C                     0.071365
    117 C                    -0.774287
    118 H                     0.258194
    119 H                     0.252294
    120 H                     0.252070
    121 C                    -0.770784
    122 H                     0.256310
    123 H                     0.250571
    124 H                     0.251460
  ----------------------------------------
  Sum of atomic charges =     0.000000

                    Cartesian Multipole Moments
 -----------------------------------------------------------------
    Charge (ESU x 10^10)
                 0.0000
    Dipole Moment (Debye)
         X      -0.1900      Y       0.0670      Z      -0.0386
       Tot       0.2051
    Quadrupole Moments (Debye-Ang)
        XX    -403.0560     XY     -33.0270     YY    -407.5212
        XZ     -30.4667     YZ      26.2623     ZZ    -418.0679

 Total job time:  59678.21s(wall), 144806.55s(cpu)
        *  Thank you very much for using Q-Chem.  Have a nice day.  *
