 Q-Chem 5.0, Q-Chem, Inc., Pleasanton, CA (2017)
 Q-Chem 5.0.1 for Intel X86 EM64T Linux

User input:
--------------------------------------------------------------
$rem
threads 4
jobtype	opt
method PBEh-3c
basis def2-mSVP
mem_static	1024
mem_total	4000
sym_ignore	true
scf_convergence	9
solvent_method	pcm
$end

$molecule
read gsopt.mol
$end

$solvent
dielectric	1.0001
$end

$pcm
theory iefpcm
$end
--------------------------------------------------------------

   17   -2925.5318179742      6.47E-10 Convergence criterion met
 Total energy in the final basis set = -2925.53181797
   15   -2925.5319841370      6.11E-10 Convergence criterion met
 Total energy in the final basis set = -2925.53198414
   15   -2925.5314304721      6.97E-10 Convergence criterion met
 Total energy in the final basis set = -2925.53143047
   13   -2925.5317519744      9.81E-10 Convergence criterion met
 Total energy in the final basis set = -2925.53175197
   13   -2925.5318292292      9.04E-10 Convergence criterion met
 Total energy in the final basis set = -2925.53182923
   13   -2925.5318370586      6.05E-10 Convergence criterion met
 Total energy in the final basis set = -2925.53183706
   12   -2925.5317678371      7.28E-10 Convergence criterion met
 Total energy in the final basis set = -2925.53176784
   12   -2925.5317914135      8.08E-10 Convergence criterion met
   11   -2925.5317902422      7.20E-10 Convergence criterion met
 Total energy in the final basis set = -2925.53179024
   11   -2925.5318089063      7.05E-10 Convergence criterion met
 Total energy in the final basis set = -2925.53180891
   11   -2925.5318410094      7.40E-10 Convergence criterion met
 Total energy in the final basis set = -2925.53184101
   10   -2925.5318486117      9.50E-10 Convergence criterion met
 Total energy in the final basis set = -2925.53184861
   11   -2925.5318501623      5.04E-10 Convergence criterion met
 Total energy in the final basis set = -2925.53185016
   10   -2925.5318414419      8.56E-10 Convergence criterion met
 Total energy in the final basis set = -2925.53184144

             Standard Nuclear Orientation (Angstroms)
    I     Atom           X                Y                Z
 ----------------------------------------------------------------
    1      N      -0.1267355612    -0.0256881200     0.1682647725
    2      C      -0.3972427916     0.1637319329     1.5093496989
    3      C       1.2398073940     0.0486257444    -0.0176095376
    4      C      -1.6285864266     0.2068002856     2.1526573809
    5      H      -2.5545498977     0.0713861415     1.6094020184
    6      C      -1.6287312115     0.4358736500     3.5159313495
    7      H      -2.5724582776     0.4744694166     4.0442570963
    8      C       1.9689905483    -0.0929658960    -1.1918881113
    9      H       1.4821143730    -0.2883255777    -2.1383131862
   10      C       3.3439528512     0.0238473562    -1.1069740047
   11      H       3.9384455723    -0.0790000009    -2.0053661224
   12      C       3.9798452694     0.2696344408     0.1130171976
   13      H       5.0574497776     0.3575971665     0.1437591526
   14      C       3.2455786072     0.3975613499     1.2772788752
   15      H       3.7431466977     0.5825110221     2.2208498879
   16      C       1.8608035160     0.2858082780     1.2194473343
   17      C      -0.4378430634     0.6216295579     4.2229497406
   18      H      -0.4734981225     0.7979863070     5.2894938400
   19      C       0.7806418923     0.5878941801     3.5709845222
   20      H       1.7002204604     0.7418921491     4.1210158216
   21      C       0.8089868300     0.3594220264     2.1995577926
   22      C      -1.0935806299    -0.2162213017    -0.8424625477
   23      C      -1.2015597333     0.6912837521    -1.8868797778
   24      H      -0.5411517546     1.5498116485    -1.9185690650
   25      C      -1.9480122742    -1.3080952283    -0.7861122642
   26      H      -1.8460611072    -2.0224786278     0.0220516451
   27      C      -2.9246774514    -1.4895351351    -1.7570669951
   28      C      -2.1591539187     0.5116499465    -2.8784131586
   29      C      -3.0359494976    -0.5761414086    -2.8120636093
   30      C      -3.8560673847    -2.6676283036    -1.6864487625
   31      H      -3.6785328330    -3.2744423306    -0.7992109263
   32      H      -4.9007255842    -2.3492100352    -1.6611158236
   33      H      -3.7411981713    -3.3176179758    -2.5563287916
   34      C      -2.2728769268     1.4888839939    -4.0144778217
   35      H      -1.5391803214     2.2904569217    -3.9377953051
   36      H      -3.2617911362     1.9515326803    -4.0450483101
   37      H      -2.1210575560     0.9962244673    -4.9775090598
   38      B      -4.1719913144    -0.7722503406    -3.8816441492
   39      C      -5.5555047095    -0.0925284882    -3.6561646856
   40      C      -5.7768061316     0.7160437276    -2.5356696645
   41      H      -4.9712349705     0.8834195810    -1.8289880199
   42      C      -7.0219396359     1.2867893271    -2.3259104492
   43      C      -8.0650003551     1.0519189390    -3.2480093971
   44      C      -7.8602427985     0.2523804142    -4.3552708476
   45      H      -8.6702758446     0.0592364232    -5.0507517817
   46      C      -6.6107927893    -0.3265199899    -4.5710361330
   47      C      -9.2633027279     1.7406564481    -2.7821449002
   48      C     -10.5499054713     1.8587378339    -3.2382310860
   49      H     -10.8780246557     1.3861463215    -4.1558136311
   50      C      -8.9069136836     2.3731947736    -1.5796815747
   51      C      -9.7887832534     3.1200835079    -0.8071647972
   52      C      -7.5587899923     2.1316793227    -1.2541608400
   53      C      -7.0697848847     2.6711475682    -0.0945628353
   54      H      -6.0438287154     2.5222327278     0.2174736395
   55      C     -11.4677951802     2.6175670727    -2.4763201089
   56      H     -12.4848082800     2.7122826148    -2.8338548499
   57      C     -11.1120696944     3.2328224481    -1.2989858885
   58      H     -11.8489829501     3.8018210885    -0.7455713774
   59      C      -7.9400629922     3.4409951436     0.7141715365
   60      H      -7.5502874255     3.8652346724     1.6299787147
   61      C      -9.2555105872     3.6670550184     0.3832655027
   62      H      -9.8825066079     4.2607238774     1.0369950187
   63      B      -6.3988592090    -1.2626471999    -5.7864035291
   64      C      -5.0057988437    -1.8992177213    -6.0327751039
   65      C      -4.8208101305    -2.7430159080    -7.1266356913
   66      H      -5.6403680230    -2.9231017655    -7.8136905415
   67      C      -3.6051134839    -3.3682623365    -7.3168418552
   68      C      -2.5384922474    -3.1583441746    -6.4163266409
   69      C      -2.7118212823    -2.3129603284    -5.3321892319
   70      H      -1.9027971973    -2.1509032575    -4.6280462053
   71      C      -3.9420967494    -1.6784009634    -5.1258618774
   72      C      -1.4130073719    -3.9897571362    -6.8578108507
   73      C      -0.1445567599    -4.2429558085    -6.4077065698
   74      H       0.2580774250    -3.7584889820    -5.5270894872
   75      C      -1.8568294363    -4.6722660358    -8.0074872029
   76      C      -1.1027973539    -5.5969311747    -8.7214548996
   77      C      -3.1803968964    -4.3281650475    -8.3304150588
   78      C      -3.7773023064    -4.9233482457    -9.4109708177
   79      H      -4.7966035414    -4.6974392128    -9.6997396468
   80      C       0.2044159816    -5.8349809882    -8.2360378811
   81      H       0.8511181672    -6.5420618628    -8.7408187195
   82      C       0.6531040904    -5.1727680262    -7.1176279200
   83      H       1.6543046433    -5.3709661581    -6.7586180581
   84      C      -3.0318560796    -5.8635489812   -10.1589559517
   85      H      -3.5007432762    -6.3362804192   -11.0121162059
   86      C      -1.7378734033    -6.1983295558    -9.8352705736
   87      H      -1.2060565837    -6.9281898357   -10.4332959793
   88      C      -7.5904068075    -1.6413666715    -6.7407191368
   89      C      -7.8556761673    -0.9029334947    -7.8995228918
   90      C      -8.8589765450    -1.3129391451    -8.7704405057
   91      H      -9.0427529091    -0.7657457480    -9.6877612465
   92      C      -9.6103511515    -2.4429061004    -8.4890843490
   93      C      -9.3725174231    -3.1597430039    -7.3260807242
   94      H      -9.9775629892    -4.0318483213    -7.1062828129
   95      C      -8.3633506601    -2.7745346384    -6.4551642341
   96      N     -10.6003618729    -2.8919718886    -9.3879358802
   97      C     -10.6063875370    -4.1333148082    -9.9913252443
   98      C     -11.7830902851    -2.2470309119    -9.6914726367
   99      C     -12.2429566158    -1.0032634242    -9.2794268797
  100      H     -11.6495322052    -0.3659027911    -8.6376005781
  101      C     -13.4962161806    -0.6085947225    -9.7136899979
  102      H     -13.8794638126     0.3559127788    -9.4073314798
  103      C      -9.6399453732    -5.1326798477    -9.9688684688
  104      H      -8.7146702411    -5.0127644082    -9.4213012165
  105      C      -9.9023888258    -6.2959400167   -10.6701440887
  106      H      -9.1673560009    -7.0903036732   -10.6653248713
  107      C     -11.0922514431    -6.4693492528   -11.3821162155
  108      H     -11.2645559763    -7.3931360003   -11.9179456140
  109      C     -12.0462068606    -5.4698523968   -11.4045888967
  110      H     -12.9680298315    -5.6035142806   -11.9570376901
  111      C     -11.8065188796    -4.2917581315   -10.7049488613
  112      C     -14.2796784120    -1.4262035822   -10.5326222674
  113      H     -15.2557406973    -1.0846790276   -10.8501583167
  114      C     -13.8186437044    -2.6659345835   -10.9328986398
  115      H     -14.4289529426    -3.3042666520   -11.5597993981
  116      C     -12.5621088641    -3.0847374451   -10.5105052435
  117      C      -8.0972621109    -3.5818176824    -5.2158115113
  118      H      -8.8042540808    -4.4042473087    -5.1134479003
  119      H      -8.1714732163    -2.9693924298    -4.3149918759
  120      H      -7.0931503341    -4.0119258599    -5.2298033850
  121      C      -7.0304298924     0.3108787822    -8.2205667464
  122      H      -7.3419888833     0.7759693145    -9.1551500296
  123      H      -7.1081089300     1.0657911574    -7.4354934130
  124      H      -5.9722112510     0.0578652560    -8.3174399929
 ----------------------------------------------------------------

   10   -2925.5318385193      5.97E-10 Convergence criterion met
 Total energy in the final basis set = -2925.53183852
 Final energy is   -2925.53183851932
 **  OPTIMIZATION CONVERGED  **

                    Orbital Energies (a.u.)
 --------------------------------------------------------------

 Alpha MOs
 -- Occupied --
-14.688 -14.688 -10.493 -10.493 -10.484 -10.483 -10.483 -10.483
-10.470 -10.470 -10.470 -10.470 -10.470 -10.469 -10.469 -10.469
-10.468 -10.468 -10.467 -10.467 -10.467 -10.467 -10.467 -10.466
-10.465 -10.464 -10.464 -10.464 -10.464 -10.464 -10.464 -10.463
-10.463 -10.463 -10.462 -10.462 -10.460 -10.459 -10.451 -10.451
-10.449 -10.449 -10.448 -10.448 -10.446 -10.446 -10.446 -10.446
-10.445 -10.445 -10.445 -10.445 -10.445 -10.445 -10.445 -10.445
-10.445 -10.444 -10.444 -10.444 -10.442 -10.442 -10.440 -10.440
-10.438 -10.437 -10.437 -10.437 -10.437 -10.436 -10.436 -10.435
-10.434 -10.433  -6.958  -6.956  -1.108  -1.107  -1.022  -1.021
 -0.978  -0.977  -0.968  -0.965  -0.949  -0.948  -0.946  -0.946
 -0.938  -0.938  -0.915  -0.907  -0.888  -0.887  -0.883  -0.883
 -0.863  -0.861  -0.854  -0.852  -0.852  -0.852  -0.844  -0.843
 -0.828  -0.820  -0.818  -0.811  -0.809  -0.808  -0.808  -0.807
 -0.778  -0.777  -0.774  -0.774  -0.741  -0.738  -0.732  -0.731
 -0.728  -0.726  -0.699  -0.696  -0.694  -0.686  -0.685  -0.685
 -0.679  -0.672  -0.657  -0.657  -0.656  -0.654  -0.649  -0.649
 -0.645  -0.643  -0.602  -0.601  -0.597  -0.595  -0.595  -0.594
 -0.590  -0.587  -0.586  -0.581  -0.580  -0.573  -0.572  -0.559
 -0.558  -0.554  -0.549  -0.548  -0.534  -0.532  -0.526  -0.522
 -0.518  -0.518  -0.518  -0.515  -0.508  -0.505  -0.503  -0.500
 -0.499  -0.499  -0.498  -0.497  -0.494  -0.491  -0.489  -0.489
 -0.488  -0.488  -0.485  -0.485  -0.485  -0.485  -0.481  -0.480
 -0.479  -0.476  -0.475  -0.474  -0.474  -0.473  -0.469  -0.469
 -0.469  -0.461  -0.452  -0.447  -0.446  -0.446  -0.443  -0.435
 -0.431  -0.431  -0.429  -0.424  -0.423  -0.423  -0.420  -0.416
 -0.411  -0.411  -0.409  -0.408  -0.404  -0.400  -0.400  -0.400
 -0.399  -0.399  -0.398  -0.396  -0.393  -0.393  -0.390  -0.389
 -0.387  -0.377  -0.374  -0.373  -0.367  -0.357  -0.354  -0.350
 -0.326  -0.326  -0.326  -0.319  -0.300  -0.299  -0.297  -0.296
 -0.290  -0.287  -0.286  -0.286  -0.286  -0.267  -0.263  -0.261
 -0.251  -0.251  -0.237  -0.236

          Ground-State Mulliken Net Atomic Charges

     Atom                 Charge (a.u.)
  ----------------------------------------
      1 N                    -0.741741
      2 C                     0.339526
      3 C                     0.341819
      4 C                    -0.281083
      5 H                     0.234786
      6 C                    -0.236554
      7 H                     0.215960
      8 C                    -0.281334
      9 H                     0.234716
     10 C                    -0.236632
     11 H                     0.216248
     12 C                    -0.228036
     13 H                     0.214630
     14 C                    -0.345779
     15 H                     0.205610
     16 C                     0.097216
     17 C                    -0.227799
     18 H                     0.214522
     19 C                    -0.346274
     20 H                     0.205495
     21 C                     0.100765
     22 C                     0.317542
     23 C                    -0.347835
     24 H                     0.236301
     25 C                    -0.355555
     26 H                     0.236507
     27 C                     0.046885
     28 C                     0.055565
     29 C                    -0.209684
     30 C                    -0.764201
     31 H                     0.242647
     32 H                     0.248030
     33 H                     0.249381
     34 C                    -0.760114
     35 H                     0.241306
     36 H                     0.248309
     37 H                     0.245206
     38 B                     0.707173
     39 C                    -0.152556
     40 C                    -0.391831
     41 H                     0.232154
     42 C                     0.113208
     43 C                     0.085349
     44 C                    -0.383389
     45 H                     0.229664
     46 C                    -0.154394
     47 C                     0.195652
     48 C                    -0.376004
     49 H                     0.219539
     50 C                    -0.060283
     51 C                     0.253240
     52 C                     0.196727
     53 C                    -0.385757
     54 H                     0.221243
     55 C                    -0.205946
     56 H                     0.229196
     57 C                    -0.331597
     58 H                     0.222422
     59 C                    -0.203217
     60 H                     0.229252
     61 C                    -0.336296
     62 H                     0.222756
     63 B                     0.703994
     64 C                    -0.150985
     65 C                    -0.379983
     66 H                     0.232589
     67 C                     0.086905
     68 C                     0.109743
     69 C                    -0.395026
     70 H                     0.229897
     71 C                    -0.156567
     72 C                     0.197131
     73 C                    -0.384851
     74 H                     0.220428
     75 C                    -0.061620
     76 C                     0.251541
     77 C                     0.196681
     78 C                    -0.375918
     79 H                     0.220189
     80 C                    -0.335365
     81 H                     0.222761
     82 C                    -0.203271
     83 H                     0.229045
     84 C                    -0.206445
     85 H                     0.229775
     86 C                    -0.331112
     87 H                     0.222486
     88 C                    -0.216382
     89 C                     0.056223
     90 C                    -0.347997
     91 H                     0.232713
     92 C                     0.310518
     93 C                    -0.344610
     94 H                     0.237347
     95 C                     0.048332
     96 N                    -0.739378
     97 C                     0.340372
     98 C                     0.344374
     99 C                    -0.281062
    100 H                     0.231325
    101 C                    -0.235575
    102 H                     0.215789
    103 C                    -0.278484
    104 H                     0.231777
    105 C                    -0.235514
    106 H                     0.215567
    107 C                    -0.228517
    108 H                     0.214798
    109 C                    -0.342479
    110 H                     0.205365
    111 C                     0.094373
    112 C                    -0.228514
    113 H                     0.214717
    114 C                    -0.342141
    115 H                     0.205400
    116 C                     0.095005
    117 C                    -0.763063
    118 H                     0.242990
    119 H                     0.248816
    120 H                     0.248167
    121 C                    -0.758427
    122 H                     0.240889
    123 H                     0.245203
    124 H                     0.247405
  ----------------------------------------
  Sum of atomic charges =    -0.000000

                    Cartesian Multipole Moments
 -----------------------------------------------------------------
    Charge (ESU x 10^10)
                -0.0000
    Dipole Moment (Debye)
         X      -0.1569      Y       0.0601      Z      -0.0140
       Tot       0.1686
    Quadrupole Moments (Debye-Ang)
        XX    -412.2802     XY     -26.8001     YY    -415.0359
        XZ     -25.2793     YZ      20.9460     ZZ    -424.6549

 Total job time:  41546.77s(wall), 101454.91s(cpu)
        *  Thank you very much for using Q-Chem.  Have a nice day.  *
