 Q-Chem 5.0, Q-Chem, Inc., Pleasanton, CA (2017)
 Q-Chem 5.0.1 for Intel X86 EM64T Linux

User input:
--------------------------------------------------------------
$rem
threads 4
jobtype	opt
method PBEh-3c
basis def2-mSVP
mem_static	1024
mem_total	4000
sym_ignore	true
scf_convergence	9
solvent_method	pcm
$end

$molecule
read gsopt.mol
$end

$solvent
dielectric	4.33
$end

$pcm
theory iefpcm
$end
--------------------------------------------------------------

   16   -2925.5587633282      8.52E-10 Convergence criterion met
 Total energy in the final basis set = -2925.55876333
   14   -2925.5591254670      8.96E-10 Convergence criterion met
 Total energy in the final basis set = -2925.55912547
   15   -2925.5587482612      5.71E-10 Convergence criterion met
 Total energy in the final basis set = -2925.55874826
   15   -2925.5589353775      4.39E-10 Convergence criterion met
 Total energy in the final basis set = -2925.55893538
   15   -2925.5590041109      4.55E-10 Convergence criterion met
 Total energy in the final basis set = -2925.55900411
   14   -2925.5590256037      9.06E-10 Convergence criterion met
 Total energy in the final basis set = -2925.55902560
   14   -2925.5589596440      8.04E-10 Convergence criterion met
 Total energy in the final basis set = -2925.55895964
   14   -2925.5589990771      7.90E-10 Convergence criterion met
 Total energy in the final basis set = -2925.55899908
   14   -2925.5590123803      7.87E-10 Convergence criterion met
 Total energy in the final basis set = -2925.55901238
   14   -2925.5590330851      7.92E-10 Convergence criterion met
 Total energy in the final basis set = -2925.55903309
   14   -2925.5590536987      7.87E-10 Convergence criterion met
 Total energy in the final basis set = -2925.55905370
   14   -2925.5590642186      7.76E-10 Convergence criterion met
 Total energy in the final basis set = -2925.55906422
   14   -2925.5590619255      7.80E-10 Convergence criterion met
 Total energy in the final basis set = -2925.55906193

             Standard Nuclear Orientation (Angstroms)
    I     Atom           X                Y                Z
 ----------------------------------------------------------------
    1      N      -0.1298689979    -0.0371165315     0.1747028764
    2      C      -0.3994918069     0.1788250897     1.5109385040
    3      C       1.2380414188    -0.0050223855    -0.0070518785
    4      C      -1.6325195141     0.2644954262     2.1487986426
    5      H      -2.5608447972     0.1463166289     1.6051504184
    6      C      -1.6310355341     0.5110865229     3.5098447967
    7      H      -2.5755623707     0.5828814615     4.0336318648
    8      C       1.9668078046    -0.1830212895    -1.1777914583
    9      H       1.4787953886    -0.3745206775    -2.1247011783
   10      C       3.3450979471    -0.1053480648    -1.0890960044
   11      H       3.9390706775    -0.2371718110    -1.9842703396
   12      C       3.9848715448     0.1382737447     0.1310392940
   13      H       5.0647751611     0.1950147324     0.1640701966
   14      C       3.2511425191     0.3038857571     1.2920160606
   15      H       3.7503460930     0.4876027720     2.2352553791
   16      C       1.8627466723     0.2312842499     1.2295348118
   17      C      -0.4368881704     0.6723419270     4.2203666004
   18      H      -0.4721504529     0.8632127038     5.2847015840
   19      C       0.7838792088     0.5956432477     3.5743764529
   20      H       1.7059584779     0.7299709038     4.1258553195
   21      C       0.8097338593     0.3490821924     2.2047400840
   22      C      -1.0995654160    -0.2213536494    -0.8377929516
   23      C      -1.2002718149     0.6893067395    -1.8801507151
   24      H      -0.5346381101     1.5439617186    -1.9129502600
   25      C      -1.9585791087    -1.3097220251    -0.7817124911
   26      H      -1.8643503474    -2.0254221386     0.0264562213
   27      C      -2.9344753480    -1.4857155825    -1.7555304401
   28      C      -2.1584782278     0.5156547352    -2.8732733405
   29      C      -3.0396734171    -0.5692218724    -2.8091025188
   30      C      -3.8685190793    -2.6618311867    -1.6877721946
   31      H      -3.6973481440    -3.2653263294    -0.7970591897
   32      H      -4.9130267355    -2.3421831284    -1.6715703696
   33      H      -3.7477008534    -3.3147036195    -2.5548015704
   34      C      -2.2649077427     1.4960767537    -4.0071756508
   35      H      -1.5235221317     2.2903019100    -3.9285551690
   36      H      -3.2498733598     1.9673850742    -4.0352277161
   37      H      -2.1189197690     1.0038476438    -4.9714001422
   38      B      -4.1738614281    -0.7619873721    -3.8817602868
   39      C      -5.5577164854    -0.0805317038    -3.6595051858
   40      C      -5.7788039363     0.7328382858    -2.5419145041
   41      H      -4.9762197556     0.9041764404    -1.8329391963
   42      C      -7.0238331008     1.3067176223    -2.3361513404
   43      C      -8.0664253851     1.0705795787    -3.2595121058
   44      C      -7.8620312362     0.2655718516    -4.3636060481
   45      H      -8.6736665027     0.0744255069    -5.0575895355
   46      C      -6.6129800981    -0.3169185259    -4.5749058124
   47      C      -9.2641656482     1.7639744197    -2.7986606898
   48      C     -10.5503026710     1.8835234281    -3.2585866877
   49      H     -10.8775668262     1.4093162201    -4.1757906453
   50      C      -8.9077469624     2.3996485534    -1.5972793589
   51      C      -9.7897480264     3.1512167788    -0.8282458361
   52      C      -7.5603416277     2.1564711042    -1.2679345934
   53      C      -7.0712632948     2.6984011296    -0.1083840567
   54      H      -6.0462175084     2.5476693499     0.2061589503
   55      C     -11.4678818254     2.6474898570    -2.4998584595
   56      H     -12.4840312187     2.7436754979    -2.8598351656
   57      C     -11.1127926691     3.2658822486    -1.3226414697
   58      H     -11.8488772224     3.8384667283    -0.7716165221
   59      C      -7.9423225623     3.4728827489     0.6965371678
   60      H      -7.5532180024     3.8987163478     1.6120559598
   61      C      -9.2577532936     3.7011460256     0.3623804512
   62      H      -9.8854751001     4.2979552826     1.0127599082
   63      B      -6.4016538958    -1.2593246738    -5.7863707074
   64      C      -5.0067919651    -1.8937991694    -6.0322071718
   65      C      -4.8206288323    -2.7388212164    -7.1254981825
   66      H      -5.6380515494    -2.9249414427    -7.8132998213
   67      C      -3.6019880866    -3.3592861935    -7.3168828655
   68      C      -2.5337643752    -3.1424945251    -6.4188111179
   69      C      -2.7088045848    -2.2969843028    -5.3342901796
   70      H      -1.8969434113    -2.1331547678    -4.6340030758
   71      C      -3.9421163273    -1.6677541692    -5.1266817204
   72      C      -1.4044671956    -3.9679735248    -6.8619924662
   73      C      -0.1323530179    -4.2123464705    -6.4144767258
   74      H       0.2699850255    -3.7236357020    -5.5359246183
   75      C      -1.8482527102    -4.6546720844    -8.0097307244
   76      C      -1.0905065583    -5.5765215704    -8.7247664651
   77      C      -3.1750559080    -4.3187677149    -8.3301383474
   78      C      -3.7727903293    -4.9195863445    -9.4082913111
   79      H      -4.7945808815    -4.7003981542    -9.6939472299
   80      C       0.2204151279    -5.8064623847    -8.2430506050
   81      H       0.8693293436    -6.5106878471    -8.7492121363
   82      C       0.6687705868    -5.1390155842    -7.1262172997
   83      H       1.6723989427    -5.3303372298    -6.7699034455
   84      C      -3.0232316610    -5.8573993797   -10.1567499042
   85      H      -3.4922568440    -6.3348579414   -11.0073720136
   86      C      -1.7251912163    -6.1842694684    -9.8363941967
   87      H      -1.1901472863    -6.9121096614   -10.4342110323
   88      C      -7.5940516869    -1.6442024778    -6.7377287528
   89      C      -7.8646642637    -0.9047881762    -7.8952828904
   90      C      -8.8703818486    -1.3170201546    -8.7634502640
   91      H      -9.0606234831    -0.7659209309    -9.6772817302
   92      C      -9.6153622694    -2.4505256143    -8.4791224732
   93      C      -9.3723196581    -3.1699447607    -7.3187617344
   94      H      -9.9707326139    -4.0466031169    -7.0979058740
   95      C      -8.3617965821    -2.7807670262    -6.4497875016
   96      N     -10.6082779857    -2.9028713449    -9.3770186564
   97      C     -10.5879895598    -4.1245012729   -10.0173365767
   98      C     -11.8115618903    -2.2828065907    -9.6450769686
   99      C     -12.2989197042    -1.0632366305    -9.1906128357
  100      H     -11.7147829933    -0.4270748656    -8.5388224932
  101      C     -13.5682593907    -0.6895337615    -9.5985694987
  102      H     -13.9725687340     0.2553894551    -9.2592557344
  103      C      -9.5935730550    -5.0973963762   -10.0359986326
  104      H      -8.6647530619    -4.9699569848    -9.4958148517
  105      C      -9.8333768652    -6.2463064592   -10.7699341838
  106      H      -9.0765699083    -7.0197036402   -10.7981099343
  107      C     -11.0282696352    -6.4316376823   -11.4734459911
  108      H     -11.1814203856    -7.3436961317   -12.0351121935
  109      C     -12.0110410150    -5.4590601430   -11.4542926377
  110      H     -12.9364494109    -5.6012170918   -11.9990357511
  111      C     -11.7934898492    -4.2958118971   -10.7210770052
  112      C     -14.3412700082    -1.5040543799   -10.4328701799
  113      H     -15.3301571243    -1.1790529594   -10.7282488824
  114      C     -13.8533035659    -2.7197814562   -10.8759398734
  115      H     -14.4540069460    -3.3559417979   -11.5146608748
  116      C     -12.5796743080    -3.1165285739   -10.4801269822
  117      C      -8.0899132196    -3.5889048345    -5.2122492896
  118      H      -8.7960467306    -4.4118819951    -5.1087416589
  119      H      -8.1607472053    -2.9772757434    -4.3105113263
  120      H      -7.0853686209    -4.0179615250    -5.2307085276
  121      C      -7.0473606463     0.3137143475    -8.2182875127
  122      H      -7.3580783527     0.7698417518    -9.1575351731
  123      H      -7.1365811602     1.0721602776    -7.4377842269
  124      H      -5.9864650635     0.0689054601    -8.3071728278
 ----------------------------------------------------------------

   14   -2925.5590573369      7.77E-10 Convergence criterion met
 Total energy in the final basis set = -2925.55905734
 Final energy is   -2925.55905733694
 **  OPTIMIZATION CONVERGED  **

                    Orbital Energies (a.u.)
 --------------------------------------------------------------

 Alpha MOs
 -- Occupied --
-14.692 -14.692 -10.494 -10.493 -10.489 -10.488 -10.488 -10.488
-10.470 -10.470 -10.467 -10.467 -10.467 -10.467 -10.467 -10.466
-10.466 -10.466 -10.465 -10.465 -10.463 -10.463 -10.463 -10.463
-10.463 -10.463 -10.463 -10.462 -10.462 -10.462 -10.461 -10.460
-10.460 -10.460 -10.460 -10.460 -10.458 -10.458 -10.451 -10.451
-10.451 -10.451 -10.450 -10.450 -10.450 -10.450 -10.450 -10.450
-10.449 -10.449 -10.449 -10.448 -10.448 -10.448 -10.448 -10.448
-10.448 -10.448 -10.448 -10.447 -10.441 -10.441 -10.441 -10.441
-10.441 -10.441 -10.439 -10.439 -10.433 -10.432 -10.432 -10.431
-10.431 -10.431  -6.957  -6.955  -1.111  -1.111  -1.020  -1.020
 -0.979  -0.978  -0.966  -0.963  -0.953  -0.953  -0.949  -0.948
 -0.935  -0.935  -0.913  -0.905  -0.890  -0.889  -0.881  -0.880
 -0.863  -0.859  -0.856  -0.853  -0.848  -0.848  -0.848  -0.848
 -0.827  -0.818  -0.815  -0.812  -0.811  -0.811  -0.810  -0.809
 -0.776  -0.775  -0.772  -0.772  -0.739  -0.738  -0.733  -0.729
 -0.728  -0.723  -0.700  -0.697  -0.691  -0.689  -0.689  -0.682
 -0.678  -0.669  -0.657  -0.657  -0.654  -0.652  -0.650  -0.650
 -0.645  -0.644  -0.600  -0.598  -0.595  -0.595  -0.593  -0.590
 -0.589  -0.589  -0.586  -0.578  -0.576  -0.574  -0.574  -0.559
 -0.558  -0.553  -0.547  -0.546  -0.530  -0.530  -0.527  -0.523
 -0.521  -0.520  -0.517  -0.512  -0.505  -0.504  -0.503  -0.501
 -0.501  -0.499  -0.498  -0.494  -0.493  -0.493  -0.492  -0.489
 -0.489  -0.489  -0.489  -0.485  -0.482  -0.482  -0.481  -0.480
 -0.475  -0.475  -0.473  -0.471  -0.470  -0.469  -0.467  -0.467
 -0.465  -0.457  -0.449  -0.443  -0.443  -0.442  -0.442  -0.433
 -0.428  -0.428  -0.428  -0.425  -0.425  -0.425  -0.422  -0.417
 -0.417  -0.414  -0.408  -0.408  -0.400  -0.399  -0.399  -0.397
 -0.397  -0.396  -0.396  -0.396  -0.395  -0.393  -0.392  -0.391
 -0.385  -0.379  -0.377  -0.373  -0.366  -0.356  -0.354  -0.348
 -0.332  -0.332  -0.325  -0.318  -0.302  -0.302  -0.298  -0.297
 -0.290  -0.286  -0.286  -0.286  -0.285  -0.266  -0.262  -0.259
 -0.257  -0.256  -0.242  -0.241

          Ground-State Mulliken Net Atomic Charges

     Atom                 Charge (a.u.)
  ----------------------------------------
      1 N                    -0.734170
      2 C                     0.335532
      3 C                     0.337349
      4 C                    -0.296949
      5 H                     0.253941
      6 C                    -0.258981
      7 H                     0.240834
      8 C                    -0.297174
      9 H                     0.253778
     10 C                    -0.259078
     11 H                     0.240916
     12 C                    -0.253742
     13 H                     0.237516
     14 C                    -0.361866
     15 H                     0.232592
     16 C                     0.079557
     17 C                    -0.253547
     18 H                     0.237472
     19 C                    -0.362149
     20 H                     0.232439
     21 C                     0.082424
     22 C                     0.305149
     23 C                    -0.355202
     24 H                     0.251938
     25 C                    -0.362234
     26 H                     0.252165
     27 C                     0.037571
     28 C                     0.047318
     29 C                    -0.207808
     30 C                    -0.773657
     31 H                     0.254839
     32 H                     0.252069
     33 H                     0.252678
     34 C                    -0.769518
     35 H                     0.253120
     36 H                     0.251645
     37 H                     0.249873
     38 B                     0.708567
     39 C                    -0.154858
     40 C                    -0.394737
     41 H                     0.244058
     42 C                     0.099577
     43 C                     0.072091
     44 C                    -0.386149
     45 H                     0.242835
     46 C                    -0.156818
     47 C                     0.181938
     48 C                    -0.385179
     49 H                     0.245066
     50 C                    -0.062454
     51 C                     0.229302
     52 C                     0.182761
     53 C                    -0.394044
     54 H                     0.245818
     55 C                    -0.228367
     56 H                     0.252535
     57 C                    -0.342773
     58 H                     0.248568
     59 C                    -0.225886
     60 H                     0.252256
     61 C                    -0.347129
     62 H                     0.248886
     63 B                     0.705516
     64 C                    -0.153410
     65 C                    -0.382926
     66 H                     0.244700
     67 C                     0.074050
     68 C                     0.095984
     69 C                    -0.397377
     70 H                     0.242798
     71 C                    -0.159290
     72 C                     0.183193
     73 C                    -0.393375
     74 H                     0.245726
     75 C                    -0.063814
     76 C                     0.227793
     77 C                     0.182807
     78 C                    -0.384726
     79 H                     0.244990
     80 C                    -0.346277
     81 H                     0.248837
     82 C                    -0.225959
     83 H                     0.252256
     84 C                    -0.228706
     85 H                     0.252755
     86 C                    -0.342333
     87 H                     0.248559
     88 C                    -0.214441
     89 C                     0.048629
     90 C                    -0.355379
     91 H                     0.249565
     92 C                     0.298178
     93 C                    -0.351698
     94 H                     0.252277
     95 C                     0.038735
     96 N                    -0.732296
     97 C                     0.336707
     98 C                     0.340419
     99 C                    -0.298383
    100 H                     0.251497
    101 C                    -0.258276
    102 H                     0.240468
    103 C                    -0.294991
    104 H                     0.251771
    105 C                    -0.258140
    106 H                     0.240377
    107 C                    -0.254166
    108 H                     0.237717
    109 C                    -0.358671
    110 H                     0.232399
    111 C                     0.076741
    112 C                    -0.254048
    113 H                     0.237561
    114 C                    -0.358415
    115 H                     0.232569
    116 C                     0.076884
    117 C                    -0.772274
    118 H                     0.254939
    119 H                     0.252162
    120 H                     0.251719
    121 C                    -0.768412
    122 H                     0.252877
    123 H                     0.249841
    124 H                     0.251284
  ----------------------------------------
  Sum of atomic charges =     0.000000

                    Cartesian Multipole Moments
 -----------------------------------------------------------------
    Charge (ESU x 10^10)
                 0.0000
    Dipole Moment (Debye)
         X      -0.1848      Y       0.0759      Z      -0.0342
       Tot       0.2027
    Quadrupole Moments (Debye-Ang)
        XX    -405.6604     XY     -31.7973     YY    -409.2436
        XZ     -29.7505     YZ      24.8205     ZZ    -420.0423

 Total job time:  55499.14s(wall), 134857.07s(cpu)
        *  Thank you very much for using Q-Chem.  Have a nice day.  *
