 Q-Chem 5.1, Q-Chem, Inc., Pleasanton, CA (2018)
 Q-Chem 5.1.1 for Intel X86 EM64T Linux

User input:
--------------------------------------------------------------
$rem
threads 4
jobtype	opt
method PBEh-3c
basis def2-mSVP
mem_static	1024
mem_total	4000
sym_ignore	true
scf_convergence	9
solvent_method	pcm
$end

$molecule
read gsopt.mol
$end

$solvent
dielectric	2.38
$end

$pcm
theory iefpcm
heavypoints 194
hpoints	    194
$end
--------------------------------------------------------------

   17   -3082.4775632873      4.71e-10  Convergence criterion met
 Total energy in the final basis set =    -3082.4775632873
   15   -3082.4796612855      4.92e-10  Convergence criterion met
 Total energy in the final basis set =    -3082.4796612855
   15   -3082.4796096741      4.88e-10  Convergence criterion met
 Total energy in the final basis set =    -3082.4796096741
   15   -3082.4791026551      4.40e-10  Convergence criterion met
 Total energy in the final basis set =    -3082.4791026551
   15   -3082.4782302397      4.26e-10  Convergence criterion met
 Total energy in the final basis set =    -3082.4782302397
   14   -3082.4777194575      9.80e-10  Convergence criterion met
 Total energy in the final basis set =    -3082.4777194575
   14   -3082.4781840745      8.61e-10  Convergence criterion met
 Total energy in the final basis set =    -3082.4781840745
   14   -3082.4785741998      8.53e-10  Convergence criterion met
   14   -3082.4780435058      7.55e-10  Convergence criterion met
 Total energy in the final basis set =    -3082.4780435058
   14   -3082.4779077060      6.83e-10  Convergence criterion met
 Total energy in the final basis set =    -3082.4779077060
   14   -3082.4777982221      6.63e-10  Convergence criterion met
 Total energy in the final basis set =    -3082.4777982221
   14   -3082.4777481715      6.34e-10  Convergence criterion met
 Total energy in the final basis set =    -3082.4777481715
   14   -3082.4777282460      6.26e-10  Convergence criterion met
 Total energy in the final basis set =    -3082.4777282460
   14   -3082.4777380205      6.36e-10  Convergence criterion met
 Total energy in the final basis set =    -3082.4777380205

             Standard Nuclear Orientation (Angstroms)
    I     Atom           X                Y                Z
 ----------------------------------------------------------------
    1      N      -0.0773172142    -0.5483683700     0.4152307232
    2      C      -0.3629698519    -1.0385808589     1.6760580679
    3      C       1.1397117303    -1.0771864210     0.0207106825
    4      C       1.7899659761    -0.9510822004    -1.2006207521
    5      H       1.3826221835    -0.3421473764    -1.9973305231
    6      C       2.9694870451    -1.6488727968    -1.3734250633
    7      H       3.4883534653    -1.5698748402    -2.3219217951
    8      C      -1.4991079194    -0.8406440969     2.4510157685
    9      H      -2.3135360670    -0.2141355473     2.1106161539
   10      C      -1.5641097304    -1.4899198741     3.6684308161
   11      H      -2.4468380657    -1.3584077537     4.2836406926
   12      C       0.6883966479    -1.8569125961     2.1126137161
   13      C       0.5962233099    -2.4940178660     3.3476523550
   14      H       1.3975451857    -3.1404034232     3.6868742763
   15      C      -0.5326199536    -2.3227839815     4.1317665702
   16      C       1.6544045644    -1.8853316314     1.0437175908
   17      C       2.8464613819    -2.5761082201     0.8398420128
   18      H       3.2424899054    -3.2171529845     1.6190829972
   19      C       3.5117071476    -2.4679847656    -0.3703325624
   20      C      -1.0428297757    -0.0660059173    -0.5022423499
   21      C      -0.8859858418     1.1729778340    -1.1025389607
   22      H      -0.0501872778     1.8015333652    -0.8182507400
   23      C      -1.7875799307     1.6023690391    -2.0723246268
   24      C      -2.1204618975    -0.8717103071    -0.8461338911
   25      H      -2.2323113058    -1.8450845954    -0.3821132063
   26      C      -3.0380079299    -0.4510271956    -1.7986171642
   27      C      -2.8674767436     0.7885018974    -2.4287597149
   28      C       4.7821502663    -3.2254813712    -0.6327948193
   29      H       5.0898895856    -3.8036884871     0.2377051145
   30      H       5.6041163768    -2.5552465028    -0.8898135646
   31      H       4.6640529744    -3.9226775741    -1.4644038692
   32      C      -1.6031580335     2.9322216495    -2.7475516072
   33      H      -0.7531903781     3.4792270570    -2.3414459063
   34      H      -2.4870785118     3.5633568730    -2.6327313460
   35      H      -1.4348353813     2.8107833049    -3.8201548439
   36      C      -0.6764581387    -3.0224210327     5.4531550422
   37      H       0.1956071969    -3.6355199189     5.6778469624
   38      H      -1.5491456866    -3.6780624483     5.4634430278
   39      H      -0.7992024045    -2.3120256545     6.2725321976
   40      C      -4.1909099212    -1.3388868866    -2.1774425076
   41      H      -4.1715907111    -2.2799079865    -1.6289798368
   42      H      -5.1500088730    -0.8580424692    -1.9738242134
   43      H      -4.1748956183    -1.5810756255    -3.2426154687
   44      B      -3.8624742016     1.2086272699    -3.5699242815
   45      C      -5.1976604833     1.9347782180    -3.2365282404
   46      C      -5.5226012933     2.2560788539    -1.9132526553
   47      H      -4.8166334617     2.0356706792    -1.1196829586
   48      C      -6.7525871111     2.8236965313    -1.6184151550
   49      C      -7.6681069068     3.0869633679    -2.6611869682
   50      C      -7.3529413468     2.7872121857    -3.9721155072
   51      H      -8.0704642698     2.9796466829    -4.7626509425
   52      C      -6.1233632508     2.2042611130    -4.2747603773
   53      C      -7.4001849102     3.1936834942    -0.3544375058
   54      C      -7.0608516568     3.1455431187     0.9719968389
   55      H      -6.0935918221     2.7893343380     1.3035159037
   56      C      -8.6849885625     3.6619325062    -0.6942106908
   57      C      -9.6477440314     4.0736760722     0.2205133454
   58      C      -8.8958748369     3.6210114229    -2.0831728295
   59      C     -10.1099881942     4.0115405848    -2.5857191872
   60      H     -10.3255646635     3.9891748078    -3.6471351251
   61      C      -8.0156413935     3.5669629047     1.9295329206
   62      H      -7.7458272281     3.5260633354     2.9765955290
   63      C      -9.2690172981     4.0164958835     1.5828272668
   64      H      -9.9665960253     4.3203220837     2.3536535360
   65      C     -10.8938682397     4.4786860657    -0.3190386987
   66      H     -11.6868603965     4.8100638653     0.3401894416
   67      C     -11.1047280894     4.4447014540    -1.6784090132
   68      H     -12.0652334111     4.7527637553    -2.0707104367
   69      C      -3.5335231559     0.8162223250    -5.0420443880
   70      C      -2.3557610997     0.1232489187    -5.3459081665
   71      H      -1.6537054812    -0.1175463394    -4.5555248024
   72      C      -2.1034364508    -0.2806236540    -6.6468377509
   73      C      -3.0302578993     0.0235022213    -7.6685225131
   74      C      -4.1929240070     0.7115443866    -7.3820940220
   75      H      -4.9088752282     0.9216526137    -8.1693286201
   76      C      -4.4615167390     1.1066440965    -6.0716370028
   77      C      -1.0219712839    -1.0703536069    -7.2455268257
   78      C       0.1130703040    -1.6851609240    -6.7854376838
   79      H       0.4148494669    -1.6279347781    -5.7470622244
   80      C      -1.3480101885    -1.2110976629    -8.6087606946
   81      C      -0.6016798807    -1.9386335838    -9.5301553740
   82      C      -2.5555071670    -0.5617302274    -8.9190587787
   83      C      -3.0347386610    -0.6288079185   -10.2021554437
   84      H      -3.9633365945    -0.1532981169   -10.4935706872
   85      C       0.9005366676    -2.4254856841    -7.7008448465
   86      H       1.7949828800    -2.9116537514    -7.3341156635
   87      C       0.5679734145    -2.5578759125    -9.0292204754
   88      H       1.1977457496    -3.1425692261    -9.6886265261
   89      C      -1.1121927516    -1.9915022130   -10.8507225618
   90      H      -0.5786427146    -2.5418412572   -11.6161311292
   91      C      -2.2893915583    -1.3516161928   -11.1632094386
   92      H      -2.6660263309    -1.4061080221   -12.1764368744
   93      B      -5.8139094928     1.7889234232    -5.7374032090
   94      C      -6.8944023549     1.9617181034    -6.8688399300
   95      C      -7.8194661914     0.9319117882    -7.0863157074
   96      C      -8.7592711695     1.0512207986    -8.1004732119
   97      H      -9.4896953349     0.2663351535    -8.2581383187
   98      C      -8.7729821208     2.1697158524    -8.9212610772
   99      C      -7.8614512216     3.1931557497    -8.7109983485
  100      H      -7.8658501651     4.0578538243    -9.3645611753
  101      C      -6.9301943777     3.0998942496    -7.6820455068
  102      N      -9.7079226821     2.2458479383    -9.9737795440
  103      C     -10.6992371058     3.1981524065   -10.1175048700
  104      C      -9.8800102874     1.2859242228   -10.9520846577
  105      C      -9.1352040644     0.1409783470   -11.2189114251
  106      H      -8.2708258095    -0.1270706189   -10.6257364666
  107      C      -9.5349527013    -0.6577618385   -12.2735113021
  108      H      -8.9656142874    -1.5546200320   -12.4896070742
  109      C     -10.9774863735     4.3207109231    -9.3473169562
  110      H     -10.3685241428     4.5885959588    -8.4939474357
  111      C     -12.0725689148     5.0873176023    -9.7004644249
  112      H     -12.3033968762     5.9653178476    -9.1082685045
  113      C     -11.5138014246     2.8493200689   -11.2067755990
  114      C     -12.6101076883     3.6402570099   -11.5379849624
  115      H     -13.2426474732     3.3667832476   -12.3752589198
  116      C     -12.8992340018     4.7687153284   -10.7904039707
  117      C     -10.9894399354     1.6223278102   -11.7418294587
  118      C     -11.3685516556     0.7974081087   -12.7992938470
  119      H     -12.2289811377     1.0544283041   -13.4071616405
  120      C     -10.6492502937    -0.3532903276   -13.0727860217
  121      C     -11.0445572656    -1.2708165478   -14.1951983240
  122      H     -11.8777089176    -0.8637879285   -14.7673240979
  123      H     -10.2186474756    -1.4357697452   -14.8891269489
  124      H     -11.3512977034    -2.2499130207   -13.8223695684
  125      C     -14.0729792883     5.6433983292   -11.1283305254
  126      H     -14.6604063984     5.2221640294   -11.9436431606
  127      H     -14.7398628965     5.7694718439   -10.2737518052
  128      H     -13.7538208855     6.6407631235   -11.4366205575
  129      C      -7.7986743849    -0.3025802654    -6.2295009107
  130      H      -8.5901295753    -0.9981813919    -6.5066319668
  131      H      -6.8488752268    -0.8343115048    -6.3221367258
  132      H      -7.9297252714    -0.0609226231    -5.1728566570
  133      C      -5.9384820534     4.2058187658    -7.4594327812
  134      H      -6.0923411080     5.0342893639    -8.1498175163
  135      H      -4.9136549497     3.8520972487    -7.5932231937
  136      H      -6.0097102695     4.6038660567    -6.4450076057
 ----------------------------------------------------------------

   14   -3082.4777386257      6.26e-10  Convergence criterion met
 Total energy in the final basis set =    -3082.4777386257
 Final energy is   -3082.47773862570
 **  OPTIMIZATION CONVERGED  **

                    Orbital Energies (a.u.)
 --------------------------------------------------------------

 Alpha MOs
 -- Occupied --
-14.688 -14.684 -10.491 -10.490 -10.482 -10.482 -10.481 -10.480
-10.468 -10.468 -10.466 -10.466 -10.466 -10.466 -10.466 -10.466
-10.466 -10.466 -10.464 -10.464 -10.463 -10.463 -10.463 -10.462
-10.462 -10.462 -10.461 -10.460 -10.460 -10.460 -10.460 -10.460
-10.460 -10.459 -10.459 -10.459 -10.457 -10.457 -10.449 -10.449
-10.448 -10.448 -10.448 -10.448 -10.446 -10.446 -10.446 -10.446
-10.445 -10.445 -10.445 -10.445 -10.445 -10.445 -10.445 -10.445
-10.443 -10.443 -10.443 -10.442 -10.442 -10.442 -10.442 -10.442
-10.440 -10.439 -10.438 -10.438 -10.431 -10.431 -10.430 -10.430
-10.430 -10.430 -10.427 -10.427 -10.427 -10.427  -6.955  -6.954
 -1.107  -1.104  -1.019  -1.018  -0.976  -0.975  -0.965  -0.962
 -0.953  -0.952  -0.948  -0.947  -0.935  -0.934  -0.912  -0.904
 -0.893  -0.892  -0.880  -0.879  -0.864  -0.864  -0.861  -0.858
 -0.853  -0.851  -0.848  -0.848  -0.835  -0.834  -0.824  -0.815
 -0.814  -0.812  -0.811  -0.808  -0.778  -0.778  -0.776  -0.774
 -0.766  -0.765  -0.762  -0.761  -0.737  -0.730  -0.728  -0.723
 -0.715  -0.714  -0.697  -0.693  -0.690  -0.681  -0.674  -0.668
 -0.662  -0.660  -0.656  -0.655  -0.652  -0.651  -0.644  -0.643
 -0.641  -0.640  -0.599  -0.597  -0.593  -0.592  -0.591  -0.590
 -0.585  -0.585  -0.584  -0.577  -0.576  -0.558  -0.556  -0.555
 -0.553  -0.545  -0.541  -0.540  -0.533  -0.530  -0.530  -0.524
 -0.516  -0.511  -0.509  -0.509  -0.505  -0.501  -0.499  -0.498
 -0.498  -0.497  -0.495  -0.493  -0.493  -0.492  -0.491  -0.488
 -0.487  -0.485  -0.485  -0.484  -0.481  -0.480  -0.477  -0.477
 -0.474  -0.472  -0.472  -0.472  -0.470  -0.470  -0.469  -0.469
 -0.467  -0.467  -0.465  -0.464  -0.464  -0.457  -0.448  -0.443
 -0.443  -0.442  -0.440  -0.436  -0.436  -0.430  -0.429  -0.429
 -0.427  -0.426  -0.426  -0.416  -0.416  -0.416  -0.412  -0.410
 -0.405  -0.404  -0.400  -0.399  -0.398  -0.397  -0.396  -0.396
 -0.396  -0.395  -0.394  -0.391  -0.389  -0.389  -0.384  -0.384
 -0.383  -0.372  -0.366  -0.364  -0.364  -0.355  -0.351  -0.347
 -0.325  -0.325  -0.323  -0.317  -0.297  -0.296  -0.292  -0.291
 -0.286  -0.284  -0.284  -0.283  -0.281  -0.265  -0.260  -0.258
 -0.249  -0.249  -0.234  -0.231

          Ground-State Mulliken Net Atomic Charges

     Atom                 Charge (a.u.)
  ----------------------------------------
      1 N                    -0.716377
      2 C                     0.316463
      3 C                     0.307201
      4 C                    -0.276019
      5 H                     0.241456
      6 C                    -0.291707
      7 H                     0.222012
      8 C                    -0.275748
      9 H                     0.243067
     10 C                    -0.292047
     11 H                     0.223399
     12 C                     0.097614
     13 C                    -0.416136
     14 H                     0.214848
     15 C                     0.110355
     16 C                     0.121015
     17 C                    -0.418811
     18 H                     0.214530
     19 C                     0.111685
     20 C                     0.285037
     21 C                    -0.360344
     22 H                     0.241913
     23 C                     0.047912
     24 C                    -0.335615
     25 H                     0.246254
     26 C                     0.041401
     27 C                    -0.208179
     28 C                    -0.715306
     29 H                     0.232417
     30 H                     0.234046
     31 H                     0.233354
     32 C                    -0.765936
     33 H                     0.248133
     34 H                     0.249129
     35 H                     0.249331
     36 C                    -0.715347
     37 H                     0.232216
     38 H                     0.233817
     39 H                     0.234206
     40 C                    -0.770003
     41 H                     0.250748
     42 H                     0.250426
     43 H                     0.251416
     44 B                     0.707230
     45 C                    -0.156392
     46 C                    -0.396942
     47 H                     0.238415
     48 C                     0.102586
     49 C                     0.076564
     50 C                    -0.384695
     51 H                     0.240044
     52 C                    -0.155095
     53 C                     0.187339
     54 C                    -0.390849
     55 H                     0.236454
     56 C                    -0.061308
     57 C                     0.236321
     58 C                     0.186450
     59 C                    -0.380809
     60 H                     0.237573
     61 C                    -0.218107
     62 H                     0.243682
     63 C                    -0.343315
     64 H                     0.239600
     65 C                    -0.338570
     66 H                     0.239231
     67 C                    -0.221248
     68 H                     0.244735
     69 C                    -0.155878
     70 C                    -0.392218
     71 H                     0.239896
     72 C                     0.101169
     73 C                     0.077637
     74 C                    -0.383436
     75 H                     0.240128
     76 C                    -0.154818
     77 C                     0.188072
     78 C                    -0.389739
     79 H                     0.237155
     80 C                    -0.062142
     81 C                     0.235425
     82 C                     0.187241
     83 C                    -0.382860
     84 H                     0.237294
     85 C                    -0.218358
     86 H                     0.243659
     87 C                    -0.342426
     88 H                     0.239350
     89 C                    -0.338735
     90 H                     0.239082
     91 C                    -0.220938
     92 H                     0.244617
     93 B                     0.704977
     94 C                    -0.217014
     95 C                     0.043794
     96 C                    -0.362963
     97 H                     0.249618
     98 C                     0.321151
     99 C                    -0.363345
    100 H                     0.245735
    101 C                     0.053646
    102 N                    -0.736059
    103 C                     0.320916
    104 C                     0.318157
    105 C                    -0.275292
    106 H                     0.245237
    107 C                    -0.291030
    108 H                     0.223429
    109 C                    -0.277351
    110 H                     0.243671
    111 C                    -0.291513
    112 H                     0.223208
    113 C                     0.101139
    114 C                    -0.413675
    115 H                     0.214453
    116 C                     0.109841
    117 C                     0.101162
    118 C                    -0.414351
    119 H                     0.214260
    120 C                     0.109649
    121 C                    -0.714925
    122 H                     0.232142
    123 H                     0.233079
    124 H                     0.234804
    125 C                    -0.715130
    126 H                     0.231997
    127 H                     0.232933
    128 H                     0.234763
    129 C                    -0.770596
    130 H                     0.250448
    131 H                     0.250698
    132 H                     0.251975
    133 C                    -0.765553
    134 H                     0.248034
    135 H                     0.249645
    136 H                     0.248342
  ----------------------------------------
  Sum of atomic charges =    -0.000000

                    Cartesian Multipole Moments
 -----------------------------------------------------------------
    Charge (ESU x 10^10)
                -0.0000
    Dipole Moment (Debye)
         X      -0.7849      Y      -0.6291      Z       0.0423
       Tot       1.0068
    Quadrupole Moments (Debye-Ang)
        XX    -423.2601     XY     -24.2360     YY    -442.0944
        XZ     -28.9365     YZ      20.7170     ZZ    -427.3051

 Total job time:  73971.52s(wall), 278397.99s(cpu)
        *  Thank you very much for using Q-Chem.  Have a nice day.  *
