 Q-Chem 5.1, Q-Chem, Inc., Pleasanton, CA (2018)
 Q-Chem 5.1.1 for Intel X86 EM64T Linux

User input:
--------------------------------------------------------------
$rem
threads 4
jobtype	opt
method PBEh-3c
basis def2-mSVP
mem_static	1024
mem_total	4000
sym_ignore	true
scf_convergence	9
solvent_method	pcm
$end

$molecule
read gsopt.mol
$end

$solvent
dielectric	2.03
$end

$pcm
theory iefpcm
heavypoints 194
hpoints	    194
$end
--------------------------------------------------------------

   17   -3082.4745860025      4.85e-10  Convergence criterion met
 Total energy in the final basis set =    -3082.4745860025
   15   -3082.4766943887      4.79e-10  Convergence criterion met
 Total energy in the final basis set =    -3082.4766943887
   15   -3082.4766629504      4.68e-10  Convergence criterion met
 Total energy in the final basis set =    -3082.4766629504
   15   -3082.4761609306      4.19e-10  Convergence criterion met
 Total energy in the final basis set =    -3082.4761609306
   14   -3082.4752877294      9.94e-10  Convergence criterion met
 Total energy in the final basis set =    -3082.4752877294
   14   -3082.4747565326      9.02e-10  Convergence criterion met
 Total energy in the final basis set =    -3082.4747565326
   14   -3082.4751947402      7.60e-10  Convergence criterion met
 Total energy in the final basis set =    -3082.4751947402
   14   -3082.4756279116      7.74e-10  Convergence criterion met
   14   -3082.4751061759      6.74e-10  Convergence criterion met
 Total energy in the final basis set =    -3082.4751061759
   14   -3082.4749755155      6.15e-10  Convergence criterion met
 Total energy in the final basis set =    -3082.4749755155
   14   -3082.4748565183      6.02e-10  Convergence criterion met
 Total energy in the final basis set =    -3082.4748565183
   14   -3082.4748025044      5.68e-10  Convergence criterion met
 Total energy in the final basis set =    -3082.4748025044
   14   -3082.4747782587      5.61e-10  Convergence criterion met
 Total energy in the final basis set =    -3082.4747782587
   14   -3082.4747854530      5.68e-10  Convergence criterion met
 Total energy in the final basis set =    -3082.4747854530

             Standard Nuclear Orientation (Angstroms)
    I     Atom           X                Y                Z
 ----------------------------------------------------------------
    1      N      -0.0768443017    -0.5468634352     0.4152541635
    2      C      -0.3621982573    -1.0380291156     1.6757807852
    3      C       1.1415233057    -1.0730421830     0.0212400616
    4      C       1.7922071212    -0.9451911976    -1.1995534485
    5      H       1.3838263063    -0.3369000262    -1.9961849915
    6      C       2.9732192143    -1.6403755397    -1.3718544657
    7      H       3.4926361062    -1.5599146570    -2.3199209473
    8      C      -1.4990310162    -0.8424301256     2.4501180997
    9      H      -2.3142400158    -0.2172160255     2.1092922102
   10      C      -1.5634983387    -1.4920998220     3.6672362973
   11      H      -2.4467359233    -1.3624128955     4.2820871137
   12      C       0.6904719920    -1.8544029512     2.1125427355
   13      C       0.5986988279    -2.4918837937     3.3472606117
   14      H       1.4010316989    -3.1367893895     3.6868376297
   15      C      -0.5307726955    -2.3230468522     4.1308040841
   16      C       1.6571148341    -1.8804638047     1.0442533475
   17      C       2.8506044037    -2.5685692375     0.8407648715
   18      H       3.2475303938    -3.2090738605     1.6199651194
   19      C       3.5164333572    -2.4586093735    -0.3688011225
   20      C      -1.0426598860    -0.0655760411    -0.5021155745
   21      C      -0.8867320903     1.1732250375    -1.1030196655
   22      H      -0.0512795186     1.8022267356    -0.8187589425
   23      C      -1.7886968580     1.6018279163    -2.0726878283
   24      C      -2.1201061158    -0.8717180861    -0.8454526830
   25      H      -2.2311022722    -1.8449363774    -0.3809508187
   26      C      -3.0380910627    -0.4518486561    -1.7977520402
   27      C      -2.8683795218     0.7874639293    -2.4284489448
   28      C       4.7887108302    -3.2131678726    -0.6306183811
   29      H       5.0969015864    -3.7914407440     0.2396805876
   30      H       5.6096385489    -2.5410427905    -0.8860175862
   31      H       4.6730449852    -3.9101372342    -1.4627573731
   32      C      -1.6052610395     2.9314712807    -2.7486112764
   33      H      -0.7551989176     3.4790516449    -2.3434656637
   34      H      -2.4892810936     3.5623715120    -2.6333238981
   35      H      -1.4377689568     2.8096978900    -3.8213022186
   36      C      -0.6739418693    -3.0232032343     5.4519505989
   37      H       0.1990473659    -3.6348615023     5.6769894068
   38      H      -1.5453452913    -3.6805563351     5.4618271348
   39      H      -0.7980264082    -2.3132724589     6.2715287256
   40      C      -4.1906062263    -1.3403549881    -2.1762468999
   41      H      -4.1712919226    -2.2809658398    -1.6270775413
   42      H      -5.1499538270    -0.8596907497    -1.9734124080
   43      H      -4.1740454134    -1.5834319447    -3.2412039454
   44      B      -3.8639182823     1.2067247332    -3.5694038421
   45      C      -5.1991822587     1.9325503463    -3.2358523665
   46      C      -5.5241025687     2.2538121403    -1.9126082286
   47      H      -4.8175587652     2.0337425511    -1.1194383367
   48      C      -6.7543055938     2.8207163865    -1.6175876639
   49      C      -7.6701435219     3.0832146718    -2.6601663318
   50      C      -7.3549331342     2.7837315734    -3.9710649744
   51      H      -8.0724213261     2.9755883995    -4.7617943986
   52      C      -6.1250840534     2.2015806445    -4.2739111505
   53      C      -7.4019289884     3.1905747279    -0.3535911144
   54      C      -7.0623333286     3.1432089920     0.9726908808
   55      H      -6.0947354757     2.7878435162     1.3040934304
   56      C      -8.6870933068     3.6578560503    -0.6931245588
   57      C      -9.6498453554     4.0692594095     0.2216343278
   58      C      -8.8981629932     3.6164598592    -2.0819863954
   59      C     -10.1125655563     4.0060480881    -2.5842705677
   60      H     -10.3283729067     3.9832587132    -3.6456165790
   61      C      -8.0170528705     3.5643022225     1.9303078830
   62      H      -7.7469466539     3.5240156571     2.9773062194
   63      C      -9.2707052324     4.0128019222     1.5837689990
   64      H      -9.9682229975     4.3164207762     2.3547193441
   65      C     -10.8962464848     4.4732774508    -0.3177892067
   66      H     -11.6893555518     4.8043587285     0.3414298634
   67      C     -11.1073849492     4.4387641410    -1.6769768989
   68      H     -12.0681824007     4.7460576629    -2.0691342499
   69      C      -3.5354329855     0.8135766254    -5.0413584780
   70      C      -2.3582333796     0.1197204720    -5.3451604237
   71      H      -1.6565677796    -0.1212530686    -4.5544673162
   72      C      -2.1062957983    -0.2846857209    -6.6459298723
   73      C      -3.0328397046     0.0199728840    -7.6676000649
   74      C      -4.1949864267     0.7087731103    -7.3812286698
   75      H      -4.9111748853     0.9192340336    -8.1681709088
   76      C      -4.4633112433     1.1042476763    -6.0708788770
   77      C      -1.0256129262    -1.0755632766    -7.2444824563
   78      C       0.1086795412    -1.6914763402    -6.7843343696
   79      H       0.4104213945    -1.6345212454    -5.7459440793
   80      C      -1.3517000243    -1.2162910836    -8.6076542387
   81      C      -0.6061121950    -1.9447008052    -9.5288411402
   82      C      -2.5585691725    -0.5659026885    -8.9180032662
   83      C      -3.0377519367    -0.6328068219   -10.2010148474
   84      H      -3.9658677369    -0.1564509693   -10.4925505786
   85      C       0.8954103911    -2.4327468369    -7.6994677598
   86      H       1.7892875138    -2.9198385668    -7.3326107693
   87      C       0.5628141533    -2.5649704695    -9.0277219621
   88      H       1.1920708581    -3.1504324086    -9.6869242944
   89      C      -1.1166905100    -1.9973061318   -10.8492966059
   90      H      -0.5837279307    -2.5482712624   -11.6146502994
   91      C      -2.2931752138    -1.3564334829   -11.1619105237
   92      H      -2.6698128725    -1.4107428188   -12.1751357193
   93      B      -5.8153967655     1.7869387300    -5.7366257579
   94      C      -6.8953351155     1.9610322140    -6.8683479960
   95      C      -7.8205045026     0.9317331189    -7.0874761349
   96      C      -8.7595002976     1.0522468526    -8.1021191324
   97      H      -9.4902538506     0.2679513497    -8.2610584911
   98      C      -8.7724522994     2.1713366062    -8.9220798654
   99      C      -7.8607541001     3.1942541050    -8.7100919119
  100      H      -7.8643705206     4.0592199165    -9.3632772021
  101      C      -6.9303588501     3.0998813519    -7.6805683882
  102      N      -9.7063374346     2.2484384624    -9.9751450506
  103      C     -10.6961997800     3.2021462950   -10.1200263594
  104      C      -9.8791760599     1.2882453248   -10.9531162643
  105      C      -9.1358447384     0.1422274700   -11.2188891953
  106      H      -8.2721892990    -0.1264679904   -10.6249947511
  107      C      -9.5359915072    -0.6564493057   -12.2732641334
  108      H      -8.9678346240    -1.5542304846   -12.4885955059
  109      C     -10.9734699223     4.3252327514    -9.3504683164
  110      H     -10.3648431895     4.5922121233    -8.4966043407
  111      C     -12.0671448035     5.0931925292    -9.7046720082
  112      H     -12.2972703139     5.9717231119    -9.1130058325
  113      C     -11.5103822010     2.8539235998   -11.2096474214
  114      C     -12.6051915405     3.6462490155   -11.5418202749
  115      H     -13.2375391623     3.3733802222   -12.3794106366
  116      C     -12.8933071204     4.7753479847   -10.7950055235
  117      C     -10.9875087121     1.6259103155   -11.7436743511
  118      C     -11.3669514380     0.8009962557   -12.8008228954
  119      H     -12.2265881214     1.0588678608   -13.4094091886
  120      C     -10.6492195797    -0.3508044868   -13.0732978688
  121      C     -11.0451114718    -1.2683271272   -14.1954603656
  122      H     -11.8770454636    -0.8603084715   -14.7686558611
  123      H     -10.2190289064    -1.4349763363   -14.8887765198
  124      H     -11.3540463033    -2.2466541332   -13.8224259662
  125      C     -14.0655145059     5.6515398198   -11.1341916028
  126      H     -14.6532565335     5.2306234350   -11.9494413200
  127      H     -14.7328400252     5.7791681231   -10.2801888664
  128      H     -13.7448057675     6.6481444024   -11.4433178633
  129      C      -7.8004577983    -0.3035095146    -6.2317271363
  130      H      -8.5920893831    -0.9986160408    -6.5096147637
  131      H      -6.8508472650    -0.8355260951    -6.3245965935
  132      H      -7.9316937096    -0.0627532540    -5.1749118053
  133      C      -5.9383211180     4.2051655122    -7.4561530972
  134      H      -6.0910539616     5.0343729644    -8.1459107921
  135      H      -4.9135369468     3.8511130192    -7.5893456300
  136      H      -6.0102365714     4.6024059354    -6.4414672616
 ----------------------------------------------------------------

   14   -3082.4747862188      5.60e-10  Convergence criterion met
 Total energy in the final basis set =    -3082.4747862188
 Final energy is   -3082.47478621881
 **  OPTIMIZATION CONVERGED  **

                    Orbital Energies (a.u.)
 --------------------------------------------------------------

 Alpha MOs
 -- Occupied --
-14.687 -14.683 -10.491 -10.490 -10.481 -10.481 -10.480 -10.480
-10.468 -10.468 -10.467 -10.466 -10.466 -10.466 -10.466 -10.466
-10.466 -10.466 -10.464 -10.464 -10.463 -10.463 -10.463 -10.463
-10.462 -10.462 -10.461 -10.460 -10.460 -10.460 -10.460 -10.460
-10.460 -10.460 -10.460 -10.458 -10.457 -10.457 -10.449 -10.449
-10.447 -10.447 -10.447 -10.447 -10.446 -10.446 -10.445 -10.445
-10.445 -10.445 -10.445 -10.445 -10.444 -10.444 -10.444 -10.444
-10.442 -10.442 -10.442 -10.442 -10.441 -10.441 -10.441 -10.441
-10.439 -10.439 -10.438 -10.437 -10.432 -10.432 -10.431 -10.430
-10.430 -10.430 -10.427 -10.427 -10.427 -10.427  -6.955  -6.954
 -1.106  -1.104  -1.019  -1.018  -0.976  -0.975  -0.965  -0.962
 -0.952  -0.952  -0.948  -0.947  -0.935  -0.934  -0.912  -0.904
 -0.893  -0.891  -0.880  -0.879  -0.864  -0.863  -0.861  -0.858
 -0.852  -0.851  -0.848  -0.848  -0.835  -0.834  -0.824  -0.815
 -0.815  -0.812  -0.811  -0.808  -0.778  -0.778  -0.776  -0.774
 -0.766  -0.765  -0.762  -0.761  -0.737  -0.731  -0.728  -0.723
 -0.715  -0.714  -0.696  -0.693  -0.690  -0.681  -0.674  -0.668
 -0.662  -0.660  -0.656  -0.655  -0.652  -0.651  -0.644  -0.642
 -0.641  -0.639  -0.599  -0.597  -0.593  -0.592  -0.591  -0.590
 -0.586  -0.585  -0.584  -0.577  -0.576  -0.558  -0.555  -0.555
 -0.553  -0.545  -0.541  -0.539  -0.533  -0.530  -0.530  -0.524
 -0.517  -0.511  -0.509  -0.509  -0.505  -0.501  -0.499  -0.498
 -0.497  -0.496  -0.494  -0.493  -0.493  -0.492  -0.491  -0.487
 -0.487  -0.485  -0.485  -0.484  -0.481  -0.479  -0.477  -0.477
 -0.474  -0.472  -0.472  -0.471  -0.470  -0.470  -0.470  -0.469
 -0.467  -0.467  -0.465  -0.464  -0.464  -0.457  -0.448  -0.444
 -0.443  -0.442  -0.440  -0.436  -0.436  -0.430  -0.429  -0.429
 -0.427  -0.426  -0.426  -0.416  -0.416  -0.416  -0.412  -0.410
 -0.405  -0.404  -0.400  -0.399  -0.398  -0.397  -0.396  -0.396
 -0.396  -0.395  -0.394  -0.392  -0.389  -0.389  -0.384  -0.384
 -0.383  -0.372  -0.366  -0.364  -0.363  -0.355  -0.351  -0.347
 -0.324  -0.324  -0.323  -0.317  -0.297  -0.296  -0.291  -0.290
 -0.286  -0.284  -0.284  -0.283  -0.281  -0.265  -0.260  -0.258
 -0.248  -0.248  -0.233  -0.231

          Ground-State Mulliken Net Atomic Charges

     Atom                 Charge (a.u.)
  ----------------------------------------
      1 N                    -0.717069
      2 C                     0.317064
      3 C                     0.307916
      4 C                    -0.273955
      5 H                     0.239301
      6 C                    -0.289845
      7 H                     0.219295
      8 C                    -0.273777
      9 H                     0.240942
     10 C                    -0.290158
     11 H                     0.220770
     12 C                     0.099756
     13 C                    -0.414526
     14 H                     0.211827
     15 C                     0.112435
     16 C                     0.123169
     17 C                    -0.417206
     18 H                     0.211508
     19 C                     0.113804
     20 C                     0.285854
     21 C                    -0.359411
     22 H                     0.240073
     23 C                     0.048801
     24 C                    -0.334489
     25 H                     0.244727
     26 C                     0.042394
     27 C                    -0.208389
     28 C                    -0.714316
     29 H                     0.231305
     30 H                     0.233246
     31 H                     0.232454
     32 C                    -0.764945
     33 H                     0.246819
     34 H                     0.248695
     35 H                     0.248969
     36 C                    -0.714355
     37 H                     0.231092
     38 H                     0.232971
     39 H                     0.233412
     40 C                    -0.769030
     41 H                     0.249479
     42 H                     0.250076
     43 H                     0.251060
     44 B                     0.707198
     45 C                    -0.156085
     46 C                    -0.396697
     47 H                     0.237017
     48 C                     0.104127
     49 C                     0.078005
     50 C                    -0.384422
     51 H                     0.238661
     52 C                    -0.154839
     53 C                     0.188891
     54 C                    -0.389947
     55 H                     0.233664
     56 C                    -0.061039
     57 C                     0.238979
     58 C                     0.187987
     59 C                    -0.379878
     60 H                     0.234883
     61 C                    -0.215645
     62 H                     0.241142
     63 C                    -0.342201
     64 H                     0.236750
     65 C                    -0.337406
     66 H                     0.236385
     67 C                    -0.218853
     68 H                     0.242224
     69 C                    -0.155655
     70 C                    -0.391936
     71 H                     0.238622
     72 C                     0.102659
     73 C                     0.079089
     74 C                    -0.383168
     75 H                     0.238816
     76 C                    -0.154537
     77 C                     0.189593
     78 C                    -0.388867
     79 H                     0.234572
     80 C                    -0.061855
     81 C                     0.238052
     82 C                     0.188769
     83 C                    -0.381945
     84 H                     0.234617
     85 C                    -0.215922
     86 H                     0.241141
     87 C                    -0.341288
     88 H                     0.236493
     89 C                    -0.337568
     90 H                     0.236229
     91 C                    -0.218544
     92 H                     0.242103
     93 B                     0.704862
     94 C                    -0.217215
     95 C                     0.044804
     96 C                    -0.362183
     97 H                     0.248112
     98 C                     0.322338
     99 C                    -0.362538
    100 H                     0.243969
    101 C                     0.054461
    102 N                    -0.736848
    103 C                     0.321553
    104 C                     0.318741
    105 C                    -0.273490
    106 H                     0.243215
    107 C                    -0.289120
    108 H                     0.220820
    109 C                    -0.275452
    110 H                     0.241581
    111 C                    -0.289585
    112 H                     0.220598
    113 C                     0.103302
    114 C                    -0.412028
    115 H                     0.211428
    116 C                     0.111914
    117 C                     0.103317
    118 C                    -0.412701
    119 H                     0.211239
    120 C                     0.111728
    121 C                    -0.713924
    122 H                     0.231031
    123 H                     0.232223
    124 H                     0.234022
    125 C                    -0.714120
    126 H                     0.230877
    127 H                     0.232059
    128 H                     0.234003
    129 C                    -0.769619
    130 H                     0.249136
    131 H                     0.250348
    132 H                     0.251670
    133 C                    -0.764562
    134 H                     0.246730
    135 H                     0.249287
    136 H                     0.247897
  ----------------------------------------
  Sum of atomic charges =    -0.000000

                    Cartesian Multipole Moments
 -----------------------------------------------------------------
    Charge (ESU x 10^10)
                -0.0000
    Dipole Moment (Debye)
         X      -0.7752      Y      -0.6137      Z       0.0452
       Tot       0.9898
    Quadrupole Moments (Debye-Ang)
        XX    -424.3580     XY     -23.7466     YY    -442.7534
        XZ     -28.5139     YZ      20.3793     ZZ    -428.4117

 Total job time:  73637.88s(wall), 277281.15s(cpu)
        *  Thank you very much for using Q-Chem.  Have a nice day.  *
