 Q-Chem 5.1, Q-Chem, Inc., Pleasanton, CA (2018)
 Q-Chem 5.1.1 for Intel X86 EM64T Linux

User input:
--------------------------------------------------------------
$rem
threads 4
jobtype	opt
method PBEh-3c
basis def2-mSVP
mem_static	1024
mem_total	4000
sym_ignore	true
scf_convergence	9
solvent_method	pcm
$end

$molecule
read gsopt.mol
$end

$solvent
dielectric	4.33
$end

$pcm
theory iefpcm
heavypoints 194
hpoints	    194
$end
--------------------------------------------------------------

   16   -3082.4869619727      7.51e-10  Convergence criterion met
 Total energy in the final basis set =    -3082.4869619727
   15   -3082.4890397893      5.47e-10  Convergence criterion met
 Total energy in the final basis set =    -3082.4890397893
   15   -3082.4889126210      5.58e-10  Convergence criterion met
 Total energy in the final basis set =    -3082.4889126210
   15   -3082.4883837875      5.11e-10  Convergence criterion met
 Total energy in the final basis set =    -3082.4883837875
   15   -3082.4875221679      4.99e-10  Convergence criterion met
 Total energy in the final basis set =    -3082.4875221679
   15   -3082.4870445183      4.92e-10  Convergence criterion met
 Total energy in the final basis set =    -3082.4870445183
   15   -3082.4875963484      4.76e-10  Convergence criterion met
 Total energy in the final basis set =    -3082.4875963484
   15   -3082.4878754464      4.58e-10  Convergence criterion met
   14   -3082.4870639465      8.54e-10  Convergence criterion met
 Total energy in the final basis set =    -3082.4870639465
   14   -3082.4870576110      8.38e-10  Convergence criterion met
 Total energy in the final basis set =    -3082.4870576110
   14   -3082.4870554834      8.42e-10  Convergence criterion met
 Total energy in the final basis set =    -3082.4870554834
   14   -3082.4870531469      8.44e-10  Convergence criterion met
 Total energy in the final basis set =    -3082.4870531469
   14   -3082.4870446826      8.35e-10  Convergence criterion met
 Total energy in the final basis set =    -3082.4870446826
   14   -3082.4870488590      8.61e-10  Convergence criterion met
 Total energy in the final basis set =    -3082.4870488590

             Standard Nuclear Orientation (Angstroms)
    I     Atom           X                Y                Z
 ----------------------------------------------------------------
    1      N      -0.0808469173    -0.5567724108     0.4152520023
    2      C      -0.3686487887    -1.0448441914     1.6764519520
    3      C       1.1315289510    -1.0949073216     0.0192132031
    4      C       1.7809983846    -0.9742313622    -1.2034944209
    5      H       1.3782385819    -0.3619041066    -2.0000622198
    6      C       2.9548025463    -1.6817642786    -1.3780687697
    7      H       3.4723190975    -1.6073009830    -2.3276750269
    8      C      -1.5028055194    -0.8391765470     2.4529371734
    9      H      -2.3138648350    -0.2072952357     2.1141790724
   10      C      -1.5710061547    -1.4886636177     3.6704126343
   11      H      -2.4523212241    -1.3511216895     4.2863706209
   12      C       0.6773692811    -1.8710335831     2.1120137945
   13      C       0.5823980399    -2.5085061929     3.3471804819
   14      H       1.3796029048    -3.1608857779     3.6848429141
   15      C      -0.5447462447    -2.3294479360     4.1325590247
   16      C       1.6418068298    -1.9070047365     1.0416792614
   17      C       2.8283729105    -2.6077669948     0.8364058713
   18      H       3.2202516476    -3.2518499095     1.6153389755
   19      C       3.4923103867    -2.5053124535    -0.3753451808
   20      C      -1.0444580378    -0.0691812885    -0.5024696529
   21      C      -0.8833020494     1.1705856515    -1.0999866337
   22      H      -0.0458305979     1.7967096362    -0.8151394923
   23      C      -1.7830846129     1.6040240559    -2.0700063481
   24      C      -2.1234637732    -0.8720765966    -0.8489042795
   25      H      -2.2391301407    -1.8460298280    -0.3868584083
   26      C      -3.0389348926    -0.4473572552    -1.8019272982
   27      C      -2.8643976763     0.7930583379    -2.4294741375
   28      C       4.7559005995    -3.2736616405    -0.6400095271
   29      H       5.0611487158    -3.8525983477     0.2308565304
   30      H       5.5820394900    -2.6103859533    -0.9016262937
   31      H       4.6293616280    -3.9707656952    -1.4704598232
   32      C      -1.5942466450     2.9349440185    -2.7418299364
   33      H      -0.7435531488     3.4785881904    -2.3327545040
   34      H      -2.4769331963     3.5678573418    -2.6271740754
   35      H      -1.4240121048     2.8155363025    -3.8143781272
   36      C      -0.6925171831    -3.0292627138     5.4535422589
   37      H       0.1758798666    -3.6479739770     5.6769751821
   38      H      -1.5698688967    -3.6786464466     5.4633276338
   39      H      -0.8112657859    -2.3185814061     6.2732569428
   40      C      -4.1937323983    -1.3318510321    -2.1827544494
   41      H      -4.1750548248    -2.2747803934    -1.6375856154
   42      H      -5.1516761481    -0.8499957449    -1.9760665530
   43      H      -4.1796309286    -1.5700268585    -3.2488821566
   44      B      -3.8563207426     1.2177725980    -3.5717380422
   45      C      -5.1913458954     1.9450424131    -3.2395208767
   46      C      -5.5171800599     2.2657459469    -1.9161888399
   47      H      -4.8137325956     2.0433446375    -1.1209910544
   48      C      -6.7464339687     2.8360588287    -1.6224936925
   49      C      -7.6597423273     3.1032350421    -2.6665508966
   50      C      -7.3440312471     2.8030043673    -3.9775158392
   51      H      -8.0610218629     2.9982630771    -4.7677723976
   52      C      -6.1155162562     2.2167925376    -4.2788891092
   53      C      -7.3948181639     3.2061083838    -0.3589394982
   54      C      -7.0580226909     3.1535334012     0.9683444705
   55      H      -6.0927115683     2.7930078030     1.3009862993
   56      C      -8.6776452569     3.6790877094    -0.7003757286
   57      C      -9.6410591397     4.0918818279     0.2136055826
   58      C      -8.8866929156     3.6408273529    -2.0898841554
   59      C     -10.0990778438     4.0356774546    -2.5941579286
   60      H     -10.3128737394     4.0154712089    -3.6560135419
   61      C      -8.0136794892     3.5759424143     1.9249918848
   62      H      -7.7460451611     3.5314922123     2.9725023294
   63      C      -9.2652754709     4.0305285017     1.5768628413
   64      H      -9.9635904652     4.3348343699     2.3468593353
   65      C     -10.8853849906     4.5015764650    -0.3272726797
   66      H     -11.6783186227     4.8340870127     0.3315002060
   67      C     -11.0940486014     4.4705167712    -1.6874550356
   68      H     -12.0529583275     4.7821998402    -2.0808803048
   69      C      -3.5239489206     0.8299728753    -5.0445732291
   70      C      -2.3432815999     0.1417111052    -5.3485033189
   71      H      -1.6402556450    -0.0985810685    -4.5588625692
   72      C      -2.0881581041    -0.2585824628    -6.6501939040
   73      C      -3.0157407926     0.0432841183    -7.6722244617
   74      C      -4.1812142518     0.7270272285    -7.3857826942
   75      H      -4.8962541332     0.9355824548    -8.1742093070
   76      C      -4.4518941896     1.1195923161    -6.0747951631
   77      C      -1.0026176305    -1.0424133140    -7.2493422266
   78      C       0.1355942284    -1.6521584486    -6.7893207579
   79      H       0.4369910965    -1.5941806688    -5.7508452477
   80      C      -1.3275465726    -1.1827080840    -8.6130540890
   81      C      -0.5773052278    -1.9057199458    -9.5352497724
   82      C      -2.5378973020    -0.5382444683    -8.9233751431
   83      C      -3.0166351856    -0.6058589460   -10.2069880509
   84      H      -3.9474622829    -0.1344573471   -10.4980424614
   85      C       0.9269922021    -2.3875629388    -7.7057258615
   86      H       1.8238944809    -2.8695084834    -7.3393216695
   87      C       0.5953757983    -2.5201938955    -9.0347349184
   88      H       1.2280434352    -3.1009721698    -9.6948580814
   89      C      -1.0869664386    -1.9593988369   -10.8564071382
   90      H      -0.5503538859    -2.5064671575   -11.6220530431
   91      C      -2.2672929934    -1.3243155145   -11.1686342958
   92      H      -2.6433510189    -1.3794442794   -12.1820673720
   93      B      -5.8061736131     1.7989910073    -5.7411787556
   94      C      -6.8890254981     1.9653196402    -6.8712770164
   95      C      -7.8124987379     0.9324135631    -7.0814516182
   96      C      -8.7562223761     1.0454741045    -8.0930964721
   97      H      -9.4843716546     0.2572427720    -8.2448074721
   98      C      -8.7751594067     2.1612441754    -8.9176285472
   99      C      -7.8652010163     3.1876635916    -8.7149260664
  100      H      -7.8738864500     4.0510176175    -9.3703047397
  101      C      -6.9297586504     3.1002067631    -7.6889612188
  102      N      -9.7150648923     2.2323348944    -9.9669049839
  103      C     -10.7102417545     3.1809255540   -10.1077301411
  104      C      -9.8872197148     1.2710748688   -10.9437930011
  105      C      -9.1389474565     0.1285306602   -11.2130979222
  106      H      -8.2715209575    -0.1370854830   -10.6231665377
  107      C      -9.5396312860    -0.6720089442   -12.2663555787
  108      H      -8.9673051983    -1.5665651810   -12.4842092101
  109      C     -10.9891739904     4.3041570230    -9.3381008743
  110      H     -10.3779546236     4.5765013576    -8.4876938385
  111      C     -12.0882321203     5.0668937155    -9.6885172651
  112      H     -12.3193301849     5.9451223486    -9.0967290893
  113      C     -11.5281285460     2.8282401656   -11.1936951556
  114      C     -12.6286093270     3.6151941093   -11.5225420396
  115      H     -13.2633333430     3.3381074038   -12.3570446806
  116      C     -12.9183092430     4.7441069777   -10.7752214324
  117      C     -11.0010023274     1.6027055138   -11.7299367344
  118      C     -11.3815287867     0.7760545295   -12.7861564412
  119      H     -12.2454377796     1.0298238190   -13.3905671137
  120      C     -10.6583952936    -0.3720731896   -13.0620024257
  121      C     -11.0535770187    -1.2909313718   -14.1834612573
  122      H     -11.8951110368    -0.8904284807   -14.7478307883
  123      H     -10.2310008611    -1.4465985262   -14.8834919537
  124      H     -11.3470288307    -2.2739503565   -13.8103110334
  125      C     -14.0955232685     5.6153508926   -11.1103989096
  126      H     -14.6886907679     5.1876371565   -11.9181430427
  127      H     -14.7550273559     5.7477006168   -10.2510877987
  128      H     -13.7791308169     6.6107707677   -11.4277887470
  129      C      -7.7867594820    -0.2989827922    -6.2202598851
  130      H      -8.5765184847    -0.9977149778    -6.4942237533
  131      H      -6.8354688112    -0.8281982379    -6.3121918278
  132      H      -7.9171858273    -0.0539003484    -5.1643033353
  133      C      -5.9402784357     4.2098093229    -7.4749591428
  134      H      -6.1020077314     5.0360966469    -8.1660960647
  135      H      -4.9151924360     3.8591112637    -7.6147751275
  136      H      -6.0062323750     4.6095562841    -6.4608208731
 ----------------------------------------------------------------

   14   -3082.4870488375      8.43e-10  Convergence criterion met
 Total energy in the final basis set =    -3082.4870488375
 Final energy is   -3082.48704883751
 **  OPTIMIZATION CONVERGED  **

                    Orbital Energies (a.u.)
 --------------------------------------------------------------

 Alpha MOs
 -- Occupied --
-14.690 -14.686 -10.492 -10.491 -10.484 -10.484 -10.483 -10.483
-10.469 -10.469 -10.466 -10.466 -10.466 -10.466 -10.466 -10.466
-10.466 -10.466 -10.465 -10.464 -10.463 -10.462 -10.462 -10.462
-10.462 -10.462 -10.461 -10.461 -10.461 -10.461 -10.460 -10.459
-10.459 -10.459 -10.459 -10.459 -10.457 -10.457 -10.450 -10.450
-10.450 -10.450 -10.449 -10.449 -10.448 -10.448 -10.448 -10.447
-10.447 -10.447 -10.447 -10.447 -10.447 -10.446 -10.446 -10.445
-10.445 -10.445 -10.445 -10.444 -10.444 -10.444 -10.444 -10.443
-10.440 -10.440 -10.439 -10.438 -10.431 -10.431 -10.431 -10.431
-10.430 -10.430 -10.427 -10.427 -10.427 -10.427  -6.956  -6.955
 -1.108  -1.106  -1.019  -1.019  -0.977  -0.976  -0.965  -0.963
 -0.954  -0.954  -0.949  -0.949  -0.935  -0.934  -0.913  -0.904
 -0.895  -0.893  -0.880  -0.879  -0.865  -0.865  -0.861  -0.858
 -0.854  -0.852  -0.848  -0.848  -0.836  -0.835  -0.824  -0.815
 -0.814  -0.814  -0.813  -0.808  -0.778  -0.778  -0.776  -0.774
 -0.766  -0.766  -0.763  -0.762  -0.737  -0.730  -0.728  -0.723
 -0.716  -0.716  -0.697  -0.694  -0.690  -0.681  -0.675  -0.669
 -0.663  -0.661  -0.657  -0.656  -0.652  -0.651  -0.646  -0.644
 -0.642  -0.641  -0.599  -0.597  -0.593  -0.592  -0.592  -0.589
 -0.587  -0.586  -0.585  -0.577  -0.576  -0.559  -0.556  -0.555
 -0.554  -0.545  -0.542  -0.541  -0.534  -0.531  -0.530  -0.524
 -0.517  -0.512  -0.510  -0.510  -0.505  -0.502  -0.500  -0.499
 -0.498  -0.498  -0.496  -0.495  -0.494  -0.493  -0.491  -0.488
 -0.488  -0.486  -0.486  -0.484  -0.481  -0.480  -0.478  -0.477
 -0.474  -0.473  -0.472  -0.472  -0.471  -0.470  -0.469  -0.468
 -0.468  -0.467  -0.465  -0.465  -0.464  -0.456  -0.448  -0.443
 -0.443  -0.441  -0.440  -0.436  -0.436  -0.430  -0.430  -0.429
 -0.427  -0.426  -0.426  -0.417  -0.417  -0.417  -0.413  -0.411
 -0.406  -0.405  -0.401  -0.400  -0.399  -0.397  -0.397  -0.396
 -0.396  -0.395  -0.394  -0.392  -0.391  -0.390  -0.385  -0.384
 -0.384  -0.373  -0.368  -0.366  -0.365  -0.356  -0.352  -0.347
 -0.327  -0.327  -0.324  -0.318  -0.298  -0.297  -0.294  -0.293
 -0.287  -0.285  -0.285  -0.284  -0.282  -0.265  -0.261  -0.259
 -0.251  -0.251  -0.236  -0.233

          Ground-State Mulliken Net Atomic Charges

     Atom                 Charge (a.u.)
  ----------------------------------------
      1 N                    -0.714187
      2 C                     0.314264
      3 C                     0.304651
      4 C                    -0.282432
      5 H                     0.248286
      6 C                    -0.297238
      7 H                     0.230644
      8 C                    -0.281787
      9 H                     0.249661
     10 C                    -0.297668
     11 H                     0.231701
     12 C                     0.090585
     13 C                    -0.420986
     14 H                     0.224557
     15 C                     0.103530
     16 C                     0.113923
     17 C                    -0.423643
     18 H                     0.224244
     19 C                     0.104699
     20 C                     0.282839
     21 C                    -0.362874
     22 H                     0.247442
     23 C                     0.045437
     24 C                    -0.338949
     25 H                     0.250757
     26 C                     0.038347
     27 C                    -0.207551
     28 C                    -0.718139
     29 H                     0.235927
     30 H                     0.236447
     31 H                     0.236104
     32 C                    -0.768891
     33 H                     0.252349
     34 H                     0.250145
     35 H                     0.250247
     36 C                    -0.718193
     37 H                     0.235775
     38 H                     0.236389
     39 H                     0.236578
     40 C                    -0.772830
     41 H                     0.254738
     42 H                     0.251299
     43 H                     0.252168
     44 B                     0.706952
     45 C                    -0.157412
     46 C                    -0.397546
     47 H                     0.242939
     48 C                     0.097557
     49 C                     0.071747
     50 C                    -0.385392
     51 H                     0.244505
     52 C                    -0.155943
     53 C                     0.182267
     54 C                    -0.393466
     55 H                     0.245220
     56 C                    -0.062463
     57 C                     0.227572
     58 C                     0.181330
     59 C                    -0.383469
     60 H                     0.245980
     61 C                    -0.225694
     62 H                     0.251625
     63 C                    -0.346564
     64 H                     0.248564
     65 C                    -0.341951
     66 H                     0.248187
     67 C                    -0.228681
     68 H                     0.252552
     69 C                    -0.156509
     70 C                    -0.393039
     71 H                     0.244092
     72 C                     0.096312
     73 C                     0.072775
     74 C                    -0.384168
     75 H                     0.244440
     76 C                    -0.155827
     77 C                     0.183042
     78 C                    -0.392286
     79 H                     0.245328
     80 C                    -0.063334
     81 C                     0.226765
     82 C                     0.182147
     83 C                    -0.385466
     84 H                     0.245687
     85 C                    -0.225909
     86 H                     0.251556
     87 C                    -0.345740
     88 H                     0.248360
     89 C                    -0.342131
     90 H                     0.248086
     91 C                    -0.228327
     92 H                     0.252449
     93 B                     0.705034
     94 C                    -0.216332
     95 C                     0.040571
     96 C                    -0.365457
     97 H                     0.254174
     98 C                     0.318047
     99 C                    -0.365574
    100 H                     0.251125
    101 C                     0.051394
    102 N                    -0.733696
    103 C                     0.318609
    104 C                     0.316117
    105 C                    -0.280826
    106 H                     0.251635
    107 C                    -0.296665
    108 H                     0.231661
    109 C                    -0.283177
    110 H                     0.250269
    111 C                    -0.297209
    112 H                     0.231444
    113 C                     0.094028
    114 C                    -0.418624
    115 H                     0.224185
    116 C                     0.102974
    117 C                     0.093942
    118 C                    -0.419332
    119 H                     0.223995
    120 C                     0.102824
    121 C                    -0.717842
    122 H                     0.235674
    123 H                     0.235745
    124 H                     0.237098
    125 C                    -0.718027
    126 H                     0.235548
    127 H                     0.235531
    128 H                     0.237113
    129 C                    -0.773490
    130 H                     0.254639
    131 H                     0.251531
    132 H                     0.252601
    133 C                    -0.768350
    134 H                     0.252151
    135 H                     0.250408
    136 H                     0.249451
  ----------------------------------------
  Sum of atomic charges =    -0.000000

                    Cartesian Multipole Moments
 -----------------------------------------------------------------
    Charge (ESU x 10^10)
                -0.0000
    Dipole Moment (Debye)
         X      -0.8057      Y      -0.6706      Z       0.0168
       Tot       1.0484
    Quadrupole Moments (Debye-Ang)
        XX    -419.6212     XY     -25.9377     YY    -439.9284
        XZ     -30.1264     YZ      21.6102     ZZ    -423.3632

 Total job time:  92308.66s(wall), 344344.34s(cpu)
        *  Thank you very much for using Q-Chem.  Have a nice day.  *
