 Q-Chem 5.1, Q-Chem, Inc., Pleasanton, CA (2018)
 Q-Chem 5.1.1 for Intel X86 EM64T Linux

User input:
--------------------------------------------------------------
$rem
threads 4
jobtype	opt
method PBEh-3c
basis def2-mSVP
mem_static	1024
mem_total	4000
sym_ignore	true
scf_convergence	9
solvent_method	pcm
$end

$molecule
read gsopt.mol
$end

$solvent
dielectric	1.0001
$end

$pcm
theory iefpcm
heavypoints 194
hpoints	    194
$end
--------------------------------------------------------------

   17   -3082.4595763629      7.58e-10  Convergence criterion met
 Total energy in the final basis set =    -3082.4595763629
   14   -3082.4617547142      8.40e-10  Convergence criterion met
 Total energy in the final basis set =    -3082.4617547142
   14   -3082.4618106330      7.21e-10  Convergence criterion met
 Total energy in the final basis set =    -3082.4618106330
   14   -3082.4613224200      6.53e-10  Convergence criterion met
 Total energy in the final basis set =    -3082.4613224200
   14   -3082.4604567316      5.65e-10  Convergence criterion met
 Total energy in the final basis set =    -3082.4604567316
   14   -3082.4597573126      4.86e-10  Convergence criterion met
 Total energy in the final basis set =    -3082.4597573126
   13   -3082.4602103377      6.99e-10  Convergence criterion met
 Total energy in the final basis set =    -3082.4602103377
   13   -3082.4606114234      8.61e-10  Convergence criterion met
    9   -3082.4598735819      7.71e-10  Convergence criterion met
 Total energy in the final basis set =    -3082.4598735819
    9   -3082.4598838300      6.97e-10  Convergence criterion met
 Total energy in the final basis set =    -3082.4598838300
    9   -3082.4598873484      8.83e-10  Convergence criterion met
 Total energy in the final basis set =    -3082.4598873484
   10   -3082.4598789510      6.75e-10  Convergence criterion met
 Total energy in the final basis set =    -3082.4598789510
   10   -3082.4598649743      5.73e-10  Convergence criterion met
 Total energy in the final basis set =    -3082.4598649743
   10   -3082.4598484817      6.15e-10  Convergence criterion met
 Total energy in the final basis set =    -3082.4598484817

             Standard Nuclear Orientation (Angstroms)
    I     Atom           X                Y                Z
 ----------------------------------------------------------------
    1      N      -0.0759709455    -0.5394401705     0.4168490354
    2      C      -0.3607237897    -1.0362431023     1.6754651347
    3      C       1.1467353732    -1.0567873737     0.0235211030
    4      C       1.7986270042    -0.9213972008    -1.1951593330
    5      H       1.3869706973    -0.3135295223    -1.9902181549
    6      C       2.9838813894    -1.6083696355    -1.3671955450
    7      H       3.5051758091    -1.5216763497    -2.3136127605
    8      C      -1.4998595855    -0.8496851734     2.4476545162
    9      H      -2.3170518680    -0.2275861599     2.1063248415
   10      C      -1.5631848132    -1.5031370849     3.6622455228
   11      H      -2.4480972803    -1.3805699879     4.2760164600
   12      C       0.6957978285    -1.8473206878     2.1111966806
   13      C       0.6046305596    -2.4884373005     3.3432961462
   14      H       1.4099643059    -3.1293642427     3.6829189480
   15      C      -0.5269061270    -2.3288808128     4.1249097864
   16      C       1.6645008770    -1.8639874093     1.0450173297
   17      C       2.8619837902    -2.5435697864     0.8412921029
   18      H       3.2614840597    -3.1840782204     1.6190321068
   19      C       3.5296064460    -2.4258384046    -0.3659546972
   20      C      -1.0427806664    -0.0615825883    -0.4994044361
   21      C      -0.8894816962     1.1758586420    -1.1036460358
   22      H      -0.0545746318     1.8056666892    -0.8199845478
   23      C      -1.7925903105     1.6017295613    -2.0727956511
   24      C      -2.1206802420    -0.8681429616    -0.8398270013
   25      H      -2.2291559358    -1.8400963329    -0.3723674175
   26      C      -3.0399488340    -0.4513072711    -1.7915598453
   27      C      -2.8722793139     0.7864199308    -2.4253928011
   28      C       4.8064804580    -3.1722792427    -0.6274479284
   29      H       5.1220598759    -3.7432883663     0.2449950907
   30      H       5.6222779043    -2.4961253846    -0.8884073537
   31      H       4.6938866874    -3.8758390572    -1.4544728004
   32      C      -1.6122359057     2.9301376256    -2.7520080853
   33      H      -0.7586769834     3.4776758164    -2.3541993194
   34      H      -2.4944431647     3.5624472640    -2.6309706942
   35      H      -1.4527371938     2.8069076693    -3.8257239692
   36      C      -0.6686411003    -3.0339257191     5.4433854414
   37      H       0.2091527670    -3.6376950955     5.6709965167
   38      H      -1.5328622131    -3.7007486943     5.4482771777
   39      H      -0.8022832794    -2.3279670725     6.2648604158
   40      C      -4.1917090742    -1.3414996694    -2.1684502634
   41      H      -4.1732994142    -2.2803447274    -1.6162296245
   42      H      -5.1516431006    -0.8607459286    -1.9688765147
   43      H      -4.1731585094    -1.5884420059    -3.2324636484
   44      B      -3.8689317857     1.2022820644    -3.5662648978
   45      C      -5.2054717160     1.9254891816    -3.2332450306
   46      C      -5.5321677460     2.2451696161    -1.9103000003
   47      H      -4.8239233510     2.0259095221    -1.1183252931
   48      C      -6.7639392232     2.8081043284    -1.6155992807
   49      C      -7.6796547005     3.0681962569    -2.6583699642
   50      C      -7.3625860031     2.7708926802    -3.9689489229
   51      H      -8.0788883732     2.9604258666    -4.7614203117
   52      C      -6.1310464868     2.1927910996    -4.2715171543
   53      C      -7.4137114676     3.1756556317    -0.3520608557
   54      C      -7.0752952074     3.1296436205     0.9740233042
   55      H      -6.1068112609     2.7773764365     1.3059214859
   56      C      -8.6999696884     3.6390577911    -0.6918845417
   57      C      -9.6642141596     4.0475701055     0.2220540902
   58      C      -8.9096254184     3.5973152653    -2.0806915460
   59      C     -10.1244697659     3.9835141320    -2.5831163568
   60      H     -10.3395407926     3.9603893589    -3.6445179571
   61      C      -8.0312864467     3.5476728634     1.9310578431
   62      H      -7.7617138912     3.5082916044     2.9781453848
   63      C      -9.2855034464     3.9921471510     1.5838984565
   64      H      -9.9840394653     4.2935014764     2.3547174769
   65      C     -10.9109244871     4.4479717662    -0.3182341321
   66      H     -11.7055865365     4.7768216188     0.3401084303
   67      C     -11.1210445782     4.4130854665    -1.6769451907
   68      H     -12.0824336639     4.7176548602    -2.0695750075
   69      C      -3.5402119313     0.8075339110    -5.0374344712
   70      C      -2.3641519449     0.1117414624    -5.3401455466
   71      H      -1.6643904931    -0.1287834160    -4.5475363566
   72      C      -2.1123629603    -0.2944773145    -6.6400455502
   73      C      -3.0375945338     0.0107358473    -7.6622403986
   74      C      -4.1984838614     0.7014908525    -7.3770360062
   75      H      -4.9155822808     0.9128063383    -8.1630229427
   76      C      -4.4670029499     1.0983544172    -6.0673811910
   77      C      -1.0334535053    -1.0886835866    -7.2371990443
   78      C       0.0985896956    -1.7069624799    -6.7761627664
   79      H       0.3999113363    -1.6497220512    -5.7377377330
   80      C      -1.3589355635    -1.2306730008    -8.6001453343
   81      C      -0.6150599645    -1.9621915992    -9.5197055564
   82      C      -2.5639731922    -0.5778994651    -8.9115287203
   83      C      -3.0423418691    -0.6457347882   -10.1942605724
   84      H      -3.9690890642    -0.1674992242   -10.4868470173
   85      C       0.8837297142    -2.4514420348    -7.6893480092
   86      H       1.7759791199    -2.9405468017    -7.3214268838
   87      C       0.5516142443    -2.5844936183    -9.0170057006
   88      H       1.1798733032    -3.1725300394    -9.6747560448
   89      C      -1.1254623465    -2.0153745649   -10.8397346992
   90      H      -0.5939505735    -2.5687496557   -11.6042546346
   91      C      -2.2997247017    -1.3723767993   -11.1536920415
   92      H      -2.6759762933    -1.4273591036   -12.1669460430
   93      B      -5.8186341816     1.7815904300    -5.7343549239
   94      C      -6.8954733754     1.9601202316    -6.8679834153
   95      C      -7.8190144419     0.9314307179    -7.0953509999
   96      C      -8.7541992907     1.0557392525    -8.1123654480
   97      H      -9.4846041449     0.2725354552    -8.2774285953
   98      C      -8.7661870919     2.1777980089    -8.9282231373
   99      C      -7.8556400866     3.1998666201    -8.7076654088
  100      H      -7.8572970036     4.0664471441    -9.3585397603
  101      C      -6.9291384465     3.1019095180    -7.6755821945
  102      N      -9.6957889813     2.2586590512    -9.9829624492
  103      C     -10.6789888169     3.2192265360   -10.1323993096
  104      C      -9.8764178386     1.2944219621   -10.9561032798
  105      C      -9.1415986588     0.1423812077   -11.2168487479
  106      H      -8.2793031194    -0.1284479510   -10.6221802422
  107      C      -9.5479745257    -0.6584535264   -12.2665808861
  108      H      -8.9866581867    -1.5614041453   -12.4779056087
  109      C     -10.9488830803     4.3465449974    -9.3676708288
  110      H     -10.3395786426     4.6110652787    -8.5137022354
  111      C     -12.0371816934     5.1199878728    -9.7250064696
  112      H     -12.2623869493     6.0020423518    -9.1368829057
  113      C     -11.4954924890     2.8710535002   -11.2197107651
  114      C     -12.5842176772     3.6689973834   -11.5547689082
  115      H     -13.2190074804     3.3963072490   -12.3904690109
  116      C     -12.8645199740     4.8032833270   -10.8135751002
  117      C     -10.9822107170     1.6364914896   -11.7472690792
  118      C     -11.3677594413     0.8091105728   -12.7992632034
  119      H     -12.2260876791     1.0698143057   -13.4082585847
  120      C     -10.6589678731    -0.3487835785   -13.0668170747
  121      C     -11.0604780904    -1.2671766453   -14.1859594745
  122      H     -11.9090711360    -0.8701992395   -14.7421809208
  123      H     -10.2453780655    -1.4161931546   -14.8961942537
  124      H     -11.3472814336    -2.2522780452   -13.8133947149
  125      C     -14.0272084664     5.6887666651   -11.1602787739
  126      H     -14.6526382245     5.2405707054   -11.9318351367
  127      H     -14.6622900399     5.8778828269   -10.2934305493
  128      H     -13.6947922349     6.6590466281   -11.5343695010
  129      C      -7.8005978138    -0.3071644100    -6.2444195456
  130      H      -8.5904117926    -1.0022672512    -6.5274633560
  131      H      -6.8501729226    -0.8378281237    -6.3361983686
  132      H      -7.9357065900    -0.0707778466    -5.1871401707
  133      C      -5.9372610085     4.2057528618    -7.4430789378
  134      H      -6.0890686052     5.0400273276    -8.1269027077
  135      H      -4.9124380735     3.8526210520    -7.5781904194
  136      H      -6.0096161604     4.5961883936    -6.4258260493
 ----------------------------------------------------------------

    9   -3082.4598474980      6.89e-10  Convergence criterion met
 Total energy in the final basis set =    -3082.4598474980
 Final energy is   -3082.45984749804
 **  OPTIMIZATION CONVERGED  **

                    Orbital Energies (a.u.)
 --------------------------------------------------------------

 Alpha MOs
 -- Occupied --
-14.685 -14.681 -10.491 -10.489 -10.479 -10.479 -10.477 -10.477
-10.469 -10.469 -10.469 -10.468 -10.468 -10.468 -10.468 -10.468
-10.467 -10.466 -10.466 -10.466 -10.466 -10.465 -10.465 -10.465
-10.463 -10.463 -10.463 -10.463 -10.463 -10.463 -10.462 -10.461
-10.461 -10.461 -10.460 -10.460 -10.458 -10.458 -10.450 -10.450
-10.447 -10.446 -10.445 -10.445 -10.445 -10.445 -10.445 -10.445
-10.443 -10.443 -10.442 -10.442 -10.442 -10.442 -10.442 -10.441
-10.440 -10.440 -10.440 -10.440 -10.440 -10.440 -10.440 -10.440
-10.439 -10.439 -10.439 -10.438 -10.435 -10.435 -10.433 -10.433
-10.431 -10.431 -10.428 -10.428 -10.428 -10.428  -6.956  -6.955
 -1.104  -1.102  -1.020  -1.020  -0.976  -0.975  -0.966  -0.964
 -0.950  -0.950  -0.947  -0.946  -0.937  -0.937  -0.914  -0.905
 -0.892  -0.890  -0.881  -0.880  -0.862  -0.862  -0.862  -0.859
 -0.852  -0.851  -0.850  -0.850  -0.835  -0.834  -0.825  -0.818
 -0.817  -0.810  -0.809  -0.809  -0.780  -0.779  -0.776  -0.774
 -0.765  -0.765  -0.762  -0.760  -0.739  -0.733  -0.731  -0.725
 -0.714  -0.713  -0.696  -0.694  -0.691  -0.684  -0.675  -0.670
 -0.661  -0.659  -0.656  -0.655  -0.654  -0.653  -0.643  -0.642
 -0.640  -0.639  -0.600  -0.600  -0.596  -0.593  -0.592  -0.591
 -0.588  -0.584  -0.582  -0.580  -0.579  -0.559  -0.556  -0.555
 -0.554  -0.548  -0.540  -0.539  -0.533  -0.533  -0.530  -0.526
 -0.518  -0.513  -0.508  -0.508  -0.507  -0.503  -0.501  -0.497
 -0.497  -0.495  -0.495  -0.493  -0.492  -0.492  -0.491  -0.488
 -0.488  -0.487  -0.485  -0.485  -0.482  -0.480  -0.479  -0.478
 -0.476  -0.473  -0.473  -0.472  -0.472  -0.472  -0.472  -0.470
 -0.468  -0.468  -0.466  -0.466  -0.465  -0.460  -0.450  -0.446
 -0.446  -0.445  -0.441  -0.437  -0.436  -0.432  -0.429  -0.429
 -0.428  -0.428  -0.428  -0.418  -0.415  -0.415  -0.411  -0.410
 -0.406  -0.404  -0.402  -0.399  -0.399  -0.398  -0.397  -0.397
 -0.397  -0.396  -0.396  -0.393  -0.388  -0.388  -0.385  -0.382
 -0.382  -0.373  -0.365  -0.365  -0.362  -0.356  -0.352  -0.348
 -0.324  -0.321  -0.321  -0.318  -0.299  -0.298  -0.290  -0.289
 -0.286  -0.285  -0.284  -0.283  -0.280  -0.266  -0.261  -0.260
 -0.245  -0.245  -0.230  -0.228

          Ground-State Mulliken Net Atomic Charges

     Atom                 Charge (a.u.)
  ----------------------------------------
      1 N                    -0.720327
      2 C                     0.319498
      3 C                     0.310754
      4 C                    -0.263205
      5 H                     0.228377
      6 C                    -0.279657
      7 H                     0.205809
      8 C                    -0.263469
      9 H                     0.229850
     10 C                    -0.279860
     11 H                     0.207664
     12 C                     0.109837
     13 C                    -0.405957
     14 H                     0.197169
     15 C                     0.122202
     16 C                     0.133555
     17 C                    -0.408689
     18 H                     0.196840
     19 C                     0.123702
     20 C                     0.290414
     21 C                    -0.353689
     22 H                     0.230125
     23 C                     0.053722
     24 C                    -0.328051
     25 H                     0.236316
     26 C                     0.047585
     27 C                    -0.209588
     28 C                    -0.708670
     29 H                     0.225774
     30 H                     0.228809
     31 H                     0.227884
     32 C                    -0.759435
     33 H                     0.240346
     34 H                     0.245658
     35 H                     0.246565
     36 C                    -0.708701
     37 H                     0.225513
     38 H                     0.228557
     39 H                     0.229076
     40 C                    -0.763590
     41 H                     0.243056
     42 H                     0.247767
     43 H                     0.248467
     44 B                     0.706567
     45 C                    -0.154692
     46 C                    -0.394958
     47 H                     0.230096
     48 C                     0.111381
     49 C                     0.084827
     50 C                    -0.382630
     51 H                     0.231834
     52 C                    -0.153587
     53 C                     0.196210
     54 C                    -0.384854
     55 H                     0.219473
     56 C                    -0.060342
     57 C                     0.251500
     58 C                     0.195174
     59 C                    -0.374672
     60 H                     0.221090
     61 C                    -0.202954
     62 H                     0.228211
     63 C                    -0.336010
     64 H                     0.222404
     65 C                    -0.330967
     66 H                     0.222073
     67 C                    -0.206488
     68 H                     0.229367
     69 C                    -0.154450
     70 C                    -0.390169
     71 H                     0.232412
     72 C                     0.109760
     73 C                     0.085897
     74 C                    -0.381470
     75 H                     0.232483
     76 C                    -0.153242
     77 C                     0.196733
     78 C                    -0.383990
     79 H                     0.221466
     80 C                    -0.061048
     81 C                     0.250376
     82 C                     0.195909
     83 C                    -0.376733
     84 H                     0.220890
     85 C                    -0.203408
     86 H                     0.228372
     87 C                    -0.334968
     88 H                     0.222160
     89 C                    -0.331103
     90 H                     0.221937
     91 C                    -0.206141
     92 H                     0.229234
     93 B                     0.703875
     94 C                    -0.218403
     95 C                     0.050081
     96 C                    -0.357829
     97 H                     0.240086
     98 C                     0.329380
     99 C                    -0.357860
    100 H                     0.234549
    101 C                     0.059081
    102 N                    -0.740956
    103 C                     0.324165
    104 C                     0.321237
    105 C                    -0.263994
    106 H                     0.232920
    107 C                    -0.278693
    108 H                     0.207817
    109 C                    -0.265548
    110 H                     0.230948
    111 C                    -0.279075
    112 H                     0.207491
    113 C                     0.113708
    114 C                    -0.403140
    115 H                     0.196694
    116 C                     0.121381
    117 C                     0.113111
    118 C                    -0.404007
    119 H                     0.196625
    120 C                     0.121578
    121 C                    -0.708358
    122 H                     0.225524
    123 H                     0.228100
    124 H                     0.229476
    125 C                    -0.708125
    126 H                     0.225288
    127 H                     0.226845
    128 H                     0.230525
    129 C                    -0.764208
    130 H                     0.242597
    131 H                     0.247949
    132 H                     0.249325
    133 C                    -0.759000
    134 H                     0.240212
    135 H                     0.246659
    136 H                     0.245001
  ----------------------------------------
  Sum of atomic charges =    -0.000000

                    Cartesian Multipole Moments
 -----------------------------------------------------------------
    Charge (ESU x 10^10)
                -0.0000
    Dipole Moment (Debye)
         X      -0.7153      Y      -0.5480      Z       0.0330
       Tot       0.9017
    Quadrupole Moments (Debye-Ang)
        XX    -429.3313     XY     -21.5687     YY    -445.9144
        XZ     -25.9198     YZ      18.5049     ZZ    -432.9503

 Total job time:  90165.13s(wall), 336184.78s(cpu)
        *  Thank you very much for using Q-Chem.  Have a nice day.  *
