 Q-Chem 5.1, Q-Chem, Inc., Pleasanton, CA (2018)
 Q-Chem 5.1.1 for Intel X86 EM64T Linux

User input:
--------------------------------------------------------------
$rem
threads 4
jobtype	opt
method PBEh-3c
basis def2-mSVP
mem_static	1024
mem_total	4000
sym_ignore	true
scf_convergence	9
solvent_method	pcm
$end

$molecule
read gsopt.mol
$end

$solvent
dielectric	8.93
$end

$pcm
theory iefpcm
heavypoints 194
hpoints	    194
$end
--------------------------------------------------------------

   16   -3082.4945216456      6.34e-10  Convergence criterion met
 Total energy in the final basis set =    -3082.4945216456
   15   -3082.4966010581      5.87e-10  Convergence criterion met
 Total energy in the final basis set =    -3082.4966010581
   15   -3082.4963976657      6.05e-10  Convergence criterion met
 Total energy in the final basis set =    -3082.4963976657
   15   -3082.4958424656      5.70e-10  Convergence criterion met
 Total energy in the final basis set =    -3082.4958424656
   15   -3082.4949940120      5.62e-10  Convergence criterion met
 Total energy in the final basis set =    -3082.4949940120
   15   -3082.4945214634      5.42e-10  Convergence criterion met
 Total energy in the final basis set =    -3082.4945214634
   15   -3082.4951120679      5.22e-10  Convergence criterion met
 Total energy in the final basis set =    -3082.4951120679
   15   -3082.4953832912      4.99e-10  Convergence criterion met
   15   -3082.4947265123      4.85e-10  Convergence criterion met
 Total energy in the final basis set =    -3082.4947265123
   15   -3082.4946078929      4.47e-10  Convergence criterion met
 Total energy in the final basis set =    -3082.4946078929
   15   -3082.4945943482      4.24e-10  Convergence criterion met
 Total energy in the final basis set =    -3082.4945943482
   15   -3082.4945394665      4.22e-10  Convergence criterion met
 Total energy in the final basis set =    -3082.4945394665
   15   -3082.4945280630      4.21e-10  Convergence criterion met
 Total energy in the final basis set =    -3082.4945280630
   15   -3082.4945333498      4.21e-10  Convergence criterion met
 Total energy in the final basis set =    -3082.4945333498

             Standard Nuclear Orientation (Angstroms)
    I     Atom           X                Y                Z
 ----------------------------------------------------------------
    1      N      -0.0818689005    -0.5582708290     0.4161874871
    2      C      -0.3695775709    -1.0447843723     1.6781534440
    3      C       1.1256875235    -1.1049729139     0.0166889255
    4      C       1.7724119888    -0.9890036391    -1.2082490589
    5      H       1.3722967965    -0.3741644231    -2.0042914294
    6      C       2.9409780056    -1.7048889604    -1.3861631522
    7      H       3.4556946429    -1.6344466149    -2.3375878672
    8      C      -1.5003764306    -0.8319380087     2.4580629407
    9      H      -2.3090265129    -0.1953605238     2.1221508488
   10      C      -1.5690599670    -1.4811180333     3.6760027639
   11      H      -2.4478909879    -1.3380801677     4.2942592105
   12      C       0.6723820212    -1.8778752047     2.1110553512
   13      C       0.5774472769    -2.5150037876     3.3467650707
   14      H       1.3716557872    -3.1724846809     3.6817544133
   15      C      -0.5465813742    -2.3285878372     4.1354237775
   16      C       1.6336669117    -1.9205083266     1.0378049763
   17      C       2.8151677803    -2.6296946791     0.8296237899
   18      H       3.2047342864    -3.2761968648     1.6077831851
   19      C       3.4760673792    -2.5319821626    -0.3845364890
   20      C      -1.0453863515    -0.0679002117    -0.5009502839
   21      C      -0.8800750772     1.1706782633    -1.0997982545
   22      H      -0.0400445938     1.7944424071    -0.8172290167
   23      C      -1.7788482458     1.6058826428    -2.0702126532
   24      C      -2.1269896112    -0.8680828279    -0.8459134015
   25      H      -2.2467163922    -1.8410958372    -0.3828176213
   26      C      -3.0411891183    -0.4414908871    -1.7995754492
   27      C      -2.8625658852     0.7976173030    -2.4287679157
   28      C       4.7335983586    -3.3090739643    -0.6528509041
   29      H       5.0372717043    -3.8898556635     0.2173289765
   30      H       5.5631000688    -2.6513692569    -0.9178667031
   31      H       4.5996132397    -4.0048443074    -1.4832432404
   32      C      -1.5850378679     2.9353985231    -2.7433542944
   33      H      -0.7340016382     3.4771333332    -2.3325831622
   34      H      -2.4665523582     3.5705529338    -2.6319882074
   35      H      -1.4120761818     2.8137819357    -3.8152034344
   36      C      -0.6949651813    -3.0275870977     5.4568241519
   37      H       0.1703647568    -3.6515444971     5.6775079506
   38      H      -1.5766565106    -3.6710238677     5.4688589566
   39      H      -0.8078459087    -2.3160789858     6.2766392086
   40      C      -4.1992873287    -1.3227382388    -2.1780313808
   41      H      -4.1800001204    -2.2670732396    -1.6353312709
   42      H      -5.1552378367    -0.8393676319    -1.9656632552
   43      H      -4.1905951227    -1.5579901468    -3.2448882244
   44      B      -3.8531522045     1.2233750218    -3.5718394183
   45      C      -5.1889670437     1.9499941969    -3.2403466029
   46      C      -5.5149867514     2.2716672329    -1.9171528429
   47      H      -4.8128833957     2.0497070719    -1.1206918400
   48      C      -6.7440409811     2.8433361268    -1.6244842071
   49      C      -7.6568092776     3.1111828316    -2.6691839610
   50      C      -7.3412087695     2.8090982900    -3.9799626982
   51      H      -8.0583293708     3.0047038901    -4.7699751756
   52      C      -6.1130392907     2.2212486886    -4.2802642190
   53      C      -7.3924532366     3.2142096705    -0.3611861367
   54      C      -7.0559473332     3.1611325219     0.9664479876
   55      H      -6.0911921897     2.7992951659     1.2993470780
   56      C      -8.6746418297     3.6887453353    -0.7034443795
   57      C      -9.6379839574     4.1030177806     0.2102883150
   58      C      -8.8832648198     3.6507188235    -2.0932030626
   59      C     -10.0949272321     4.0478199890    -2.5982648511
   60      H     -10.3080475337     4.0284739401    -3.6603036155
   61      C      -8.0118040054     3.5847847078     1.9226997641
   62      H      -7.7447324329     3.5398058850     2.9703453564
   63      C      -9.2629487558     4.0411555043     1.5739721226
   64      H      -9.9614771823     4.3463502091     2.3434428403
   65      C     -10.8816990567     4.5147982330    -0.3310631692
   66      H     -11.6742932132     4.8484371692     0.3275661065
   67      C     -11.0896582105     4.4842691316    -1.6917019588
   68      H     -12.0477765710     4.7977587344    -2.0856778399
   69      C      -3.5194859521     0.8367744507    -5.0449079204
   70      C      -2.3360748851     0.1529050114    -5.3488513226
   71      H      -1.6304640672    -0.0838831304    -4.5604834492
   72      C      -2.0801749436    -0.2473202382    -6.6506288837
   73      C      -3.0101049132     0.0491911414    -7.6723995362
   74      C      -4.1778180463     0.7295859765    -7.3860589924
   75      H      -4.8930732901     0.9351326271    -8.1750520484
   76      C      -4.4488315131     1.1227560827    -6.0752238947
   77      C      -0.9911053707    -1.0262717412    -7.2497892514
   78      C       0.1516052990    -1.6284522987    -6.7901214001
   79      H       0.4544857220    -1.5661864734    -5.7523039682
   80      C      -1.3170649589    -1.1702096011    -8.6130364057
   81      C      -0.5638039499    -1.8904879348    -9.5352286280
   82      C      -2.5309605423    -0.5319946520    -8.9232226335
   83      C      -3.0108496122    -0.6036156514   -10.2065083833
   84      H      -3.9443406190    -0.1372184668   -10.4971819976
   85      C       0.9460140399    -2.3608101690    -7.7067387184
   86      H       1.8464326730    -2.8366120276    -7.3408746132
   87      C       0.6132003739    -2.4977230246    -9.0353616428
   88      H       1.2481027898    -3.0758086484    -9.6957224957
   89      C      -1.0745147616    -1.9486900834   -10.8560611047
   90      H      -0.5356836764    -2.4941526217   -11.6213063808
   91      C      -2.2586692628    -1.3198771775   -11.1679205189
   92      H      -2.6356415833    -1.3784733549   -12.1808375180
   93      B      -5.8041897549     1.8007526032    -5.7420333434
   94      C      -6.8875244438     1.9643327129    -6.8721736496
   95      C      -7.8079248411     0.9287791749    -7.0832433306
   96      C      -8.7522064406     1.0399667568    -8.0947620525
   97      H      -9.4771657879     0.2489050438    -8.2473457070
   98      C      -8.7745480353     2.1571218194    -8.9174355420
   99      C      -7.8679414857     3.1863915802    -8.7139166521
  100      H      -7.8800157354     4.0515819823    -9.3668490801
  101      C      -6.9317609050     3.1003469566    -7.6883161687
  102      N      -9.7159890196     2.2273262930    -9.9661401502
  103      C     -10.7167492584     3.1708353759   -10.1016015146
  104      C      -9.8850099786     1.2683835151   -10.9458485539
  105      C      -9.1312423326     0.1303898698   -11.2204848694
  106      H      -8.2611094200    -0.1332487881   -10.6335788493
  107      C      -9.5301665948    -0.6688723408   -12.2757166934
  108      H      -8.9535101989    -1.5596214133   -12.4976918744
  109      C     -11.0002841221     4.2903267483    -9.3276299256
  110      H     -10.3882898731     4.5647035633    -8.4783709700
  111      C     -12.1048465317     5.0478224095    -9.6729644008
  112      H     -12.3394258090     5.9227191852    -9.0776160212
  113      C     -11.5352572754     2.8173416888   -11.1871105308
  114      C     -12.6414449864     3.5989971134   -11.5112535389
  115      H     -13.2760603640     3.3209530746   -12.3456129680
  116      C     -12.9359771070     4.7237248379   -10.7590718697
  117      C     -11.0024277257     1.5965597923   -11.7287714808
  118      C     -11.3813356109     0.7714284626   -12.7872855417
  119      H     -12.2479150288     1.0230076645   -13.3888957862
  120      C     -10.6525637674    -0.3722024679   -13.0681959952
  121      C     -11.0457804858    -1.2897761408   -14.1915095449
  122      H     -11.8880452337    -0.8896253732   -14.7550197446
  123      H     -10.2223755459    -1.4431727072   -14.8910354107
  124      H     -11.3369345145    -2.2740586134   -13.8198614910
  125      C     -14.1198637823     5.5884848095   -11.0877962656
  126      H     -14.7062485218     5.1649365283   -11.9026299303
  127      H     -14.7828263081     5.7049549732   -10.2288234401
  128      H     -13.8112264336     6.5906023793   -11.3913775741
  129      C      -7.7785547316    -0.3034049520    -6.2233485102
  130      H      -8.5683913827    -1.0025750164    -6.4958788679
  131      H      -6.8269620888    -0.8315466912    -6.3184559181
  132      H      -7.9062174070    -0.0593076236    -5.1667714713
  133      C      -5.9464831452     4.2132736565    -7.4727126928
  134      H      -6.1087782220     5.0379106622    -8.1656685352
  135      H      -4.9198820380     3.8654405266    -7.6087016900
  136      H      -6.0173604517     4.6141720831    -6.4593412563
 ----------------------------------------------------------------

   15   -3082.4945338318      4.18e-10  Convergence criterion met
 Total energy in the final basis set =    -3082.4945338318
 Final energy is   -3082.49453383180
 **  OPTIMIZATION CONVERGED  **

                    Orbital Energies (a.u.)
 --------------------------------------------------------------

 Alpha MOs
 -- Occupied --
-14.692 -14.688 -10.493 -10.492 -10.486 -10.486 -10.485 -10.485
-10.470 -10.470 -10.467 -10.467 -10.467 -10.467 -10.467 -10.466
-10.466 -10.466 -10.465 -10.465 -10.463 -10.463 -10.463 -10.462
-10.462 -10.462 -10.462 -10.462 -10.462 -10.461 -10.461 -10.460
-10.459 -10.459 -10.459 -10.459 -10.458 -10.458 -10.452 -10.451
-10.451 -10.451 -10.451 -10.450 -10.450 -10.450 -10.450 -10.449
-10.449 -10.449 -10.448 -10.448 -10.447 -10.447 -10.446 -10.446
-10.446 -10.446 -10.446 -10.446 -10.445 -10.445 -10.445 -10.445
-10.441 -10.441 -10.440 -10.439 -10.432 -10.432 -10.431 -10.431
-10.430 -10.430 -10.427 -10.427 -10.427 -10.427  -6.957  -6.956
 -1.110  -1.108  -1.020  -1.020  -0.978  -0.977  -0.966  -0.963
 -0.956  -0.956  -0.950  -0.950  -0.935  -0.935  -0.913  -0.905
 -0.896  -0.894  -0.880  -0.880  -0.867  -0.866  -0.862  -0.859
 -0.855  -0.854  -0.848  -0.848  -0.837  -0.836  -0.825  -0.816
 -0.815  -0.815  -0.814  -0.809  -0.779  -0.778  -0.777  -0.775
 -0.767  -0.766  -0.764  -0.762  -0.738  -0.731  -0.728  -0.723
 -0.717  -0.717  -0.698  -0.695  -0.690  -0.681  -0.676  -0.669
 -0.664  -0.663  -0.658  -0.657  -0.653  -0.651  -0.647  -0.645
 -0.643  -0.642  -0.599  -0.598  -0.594  -0.593  -0.592  -0.589
 -0.588  -0.587  -0.585  -0.577  -0.576  -0.559  -0.557  -0.556
 -0.554  -0.545  -0.543  -0.542  -0.535  -0.532  -0.530  -0.524
 -0.517  -0.512  -0.511  -0.511  -0.505  -0.503  -0.501  -0.500
 -0.499  -0.498  -0.497  -0.496  -0.495  -0.494  -0.491  -0.489
 -0.489  -0.487  -0.487  -0.484  -0.481  -0.480  -0.479  -0.478
 -0.474  -0.473  -0.473  -0.473  -0.471  -0.470  -0.469  -0.468
 -0.468  -0.468  -0.466  -0.465  -0.464  -0.456  -0.448  -0.443
 -0.443  -0.441  -0.441  -0.436  -0.436  -0.430  -0.430  -0.430
 -0.428  -0.427  -0.426  -0.418  -0.418  -0.417  -0.414  -0.411
 -0.407  -0.406  -0.403  -0.402  -0.399  -0.398  -0.397  -0.397
 -0.396  -0.396  -0.394  -0.392  -0.392  -0.391  -0.387  -0.385
 -0.385  -0.374  -0.369  -0.367  -0.366  -0.357  -0.353  -0.348
 -0.329  -0.329  -0.325  -0.319  -0.298  -0.297  -0.296  -0.294
 -0.288  -0.286  -0.285  -0.285  -0.283  -0.266  -0.262  -0.259
 -0.253  -0.253  -0.238  -0.235

          Ground-State Mulliken Net Atomic Charges

     Atom                 Charge (a.u.)
  ----------------------------------------
      1 N                    -0.712307
      2 C                     0.312240
      3 C                     0.301997
      4 C                    -0.287505
      5 H                     0.253965
      6 C                    -0.301268
      7 H                     0.237658
      8 C                    -0.286509
      9 H                     0.254881
     10 C                    -0.301787
     11 H                     0.238356
     12 C                     0.084580
     13 C                    -0.424624
     14 H                     0.232526
     15 C                     0.097784
     16 C                     0.108194
     17 C                    -0.427295
     18 H                     0.232214
     19 C                     0.098800
     20 C                     0.281370
     21 C                    -0.364415
     22 H                     0.251631
     23 C                     0.043694
     24 C                    -0.341483
     25 H                     0.253999
     26 C                     0.035979
     27 C                    -0.206934
     28 C                    -0.720142
     29 H                     0.238732
     30 H                     0.238278
     31 H                     0.238195
     32 C                    -0.770959
     33 H                     0.255806
     34 H                     0.250542
     35 H                     0.250711
     36 C                    -0.720200
     37 H                     0.238633
     38 H                     0.238338
     39 H                     0.238363
     40 C                    -0.774904
     41 H                     0.257933
     42 H                     0.251804
     43 H                     0.252373
     44 B                     0.706297
     45 C                    -0.158576
     46 C                    -0.397806
     47 H                     0.246819
     48 C                     0.093087
     49 C                     0.067845
     50 C                    -0.385886
     51 H                     0.248255
     52 C                    -0.156408
     53 C                     0.177916
     54 C                    -0.395219
     55 H                     0.252250
     56 C                    -0.063687
     57 C                     0.220264
     58 C                     0.177023
     59 C                    -0.385473
     60 H                     0.252660
     61 C                    -0.231649
     62 H                     0.257911
     63 C                    -0.348850
     64 H                     0.255709
     65 C                    -0.344405
     66 H                     0.255341
     67 C                    -0.234436
     68 H                     0.258709
     69 C                    -0.156990
     70 C                    -0.393630
     71 H                     0.247761
     72 C                     0.092066
     73 C                     0.068744
     74 C                    -0.384650
     75 H                     0.248242
     76 C                    -0.156760
     77 C                     0.178728
     78 C                    -0.394135
     79 H                     0.252010
     80 C                    -0.064619
     81 C                     0.219416
     82 C                     0.177868
     83 C                    -0.387285
     84 H                     0.252364
     85 C                    -0.231858
     86 H                     0.257851
     87 C                    -0.348066
     88 H                     0.255567
     89 C                    -0.344535
     90 H                     0.255298
     91 C                    -0.234036
     92 H                     0.258603
     93 B                     0.704824
     94 C                    -0.216033
     95 C                     0.038350
     96 C                    -0.366906
     97 H                     0.257532
     98 C                     0.315653
     99 C                    -0.367184
    100 H                     0.255186
    101 C                     0.049850
    102 N                    -0.731720
    103 C                     0.316386
    104 C                     0.314119
    105 C                    -0.285006
    106 H                     0.256655
    107 C                    -0.300854
    108 H                     0.238192
    109 C                    -0.287612
    110 H                     0.255546
    111 C                    -0.301452
    112 H                     0.238049
    113 C                     0.088113
    114 C                    -0.422442
    115 H                     0.232195
    116 C                     0.097298
    117 C                     0.087875
    118 C                    -0.423087
    119 H                     0.231966
    120 C                     0.097079
    121 C                    -0.719873
    122 H                     0.238508
    123 H                     0.237703
    124 H                     0.238863
    125 C                    -0.720140
    126 H                     0.238422
    127 H                     0.237626
    128 H                     0.238739
    129 C                    -0.775508
    130 H                     0.258019
    131 H                     0.251878
    132 H                     0.252561
    133 C                    -0.770699
    134 H                     0.255572
    135 H                     0.250741
    136 H                     0.250129
  ----------------------------------------
  Sum of atomic charges =    -0.000000

                    Cartesian Multipole Moments
 -----------------------------------------------------------------
    Charge (ESU x 10^10)
                -0.0000
    Dipole Moment (Debye)
         X      -0.8140      Y      -0.7111      Z       0.0079
       Tot       1.0809
    Quadrupole Moments (Debye-Ang)
        XX    -416.3666     XY     -27.3955     YY    -438.2388
        XZ     -31.0584     YZ      22.5502     ZZ    -420.0669

 Total job time:  76560.62s(wall), 287682.38s(cpu)
        *  Thank you very much for using Q-Chem.  Have a nice day.  *
