 Q-Chem 5.0, Q-Chem, Inc., Pleasanton, CA (2017)
 Q-Chem 5.0.1 for Intel X86 EM64T Linux

User input:
--------------------------------------------------------------
$rem
threads 4
jobtype	opt
method PBEh-3c
basis def2-mSVP
mem_static	1024
mem_total	4000
sym_ignore	true
scf_convergence	9
solvent_method	pcm
$end

$molecule
read gsopt.mol
$end

$solvent
dielectric	2.03
$end

$pcm
theory iefpcm
$end
--------------------------------------------------------------

   17   -3799.4424672062      6.14E-10 Convergence criterion met
 Total energy in the final basis set = -3799.44246721
   15   -3799.4421374992      5.54E-10 Convergence criterion met
 Total energy in the final basis set = -3799.44213750
   14   -3799.4411239878      9.34E-10 Convergence criterion met
 Total energy in the final basis set = -3799.44112399
   15   -3799.4394907716      5.10E-10 Convergence criterion met
 Total energy in the final basis set = -3799.43949077
   15   -3799.4393106626      5.55E-10 Convergence criterion met
 Total energy in the final basis set = -3799.43931066
   14   -3799.4397485620      7.66E-10 Convergence criterion met
 Total energy in the final basis set = -3799.43974856
   14   -3799.4396422856      6.60E-10 Convergence criterion met
 Total energy in the final basis set = -3799.43964229
   14   -3799.4392194206      7.02E-10 Convergence criterion met
   14   -3799.4394908922      8.16E-10 Convergence criterion met
 Total energy in the final basis set = -3799.43949089
   14   -3799.4393167668      6.30E-10 Convergence criterion met
 Total energy in the final basis set = -3799.43931677
   14   -3799.4393688756      6.15E-10 Convergence criterion met
 Total energy in the final basis set = -3799.43936888
   14   -3799.4395105287      5.42E-10 Convergence criterion met
 Total energy in the final basis set = -3799.43951053
   14   -3799.4395147915      5.24E-10 Convergence criterion met
 Total energy in the final basis set = -3799.43951479
   14   -3799.4395108207      5.11E-10 Convergence criterion met
 Total energy in the final basis set = -3799.43951082

             Standard Nuclear Orientation (Angstroms)
    I     Atom           X                Y                Z
 ----------------------------------------------------------------
    1      S      -0.5851194117     0.6367080471    -0.4013791947
    2      C      -0.2700430208     0.8285032150     1.3193576489
    3      C       1.0288177448     1.0502823413     1.7489354002
    4      H       1.8051874751     1.2207836777     1.0136275729
    5      C       1.3356082904     1.0243231023     3.1006608427
    6      H       2.3540325672     1.1784447196     3.4298641701
    7      C       0.3219302234     0.7908537457     4.0140815281
    8      H       0.5398104969     0.7573340476     5.0734234031
    9      C      -0.9874048816     0.6124980935     3.5926233929
   10      H      -1.7564219215     0.4426943918     4.3323587266
   11      C      -1.3086540519     0.6358134196     2.2356601551
   12      N      -2.6234795803     0.4637866842     1.7772305180
   13      C      -3.0814284693     1.0845498650     0.6075614555
   14      C      -4.4101574835     1.4836559093     0.4626940113
   15      H      -5.1178746810     1.3160796451     1.2619205061
   16      C      -4.8484867364     2.0795827017    -0.7104668878
   17      H      -5.8889111964     2.3642544021    -0.7976304213
   18      C      -3.9703291213     2.3200475404    -1.7534159442
   19      H      -4.3090962277     2.7930546257    -2.6651141694
   20      C      -2.6442369977     1.9385162863    -1.6171875829
   21      H      -1.9406957062     2.1103068455    -2.4221595922
   22      C      -2.2106529036     1.3041067640    -0.4634519665
   23      C      -3.5968000302    -0.0407622861     2.6860352384
   24      C      -3.9612614943    -1.3704832226     2.6006956487
   25      H      -3.5134105632    -1.9931739109     1.8343221975
   26      C      -4.1752019681     0.7763912863     3.6489378557
   27      H      -3.8973758471     1.8235542105     3.6951144202
   28      C      -5.0840240227     0.2546525958     4.5579371600
   29      C      -4.8782002115    -1.9126726745     3.4982207247
   30      C      -5.4266709139    -1.1054192254     4.4985273592
   31      C      -5.6934978841     1.1378385012     5.6098535695
   32      H      -5.2556653012     2.1352181030     5.6004290542
   33      H      -6.7695179323     1.2473844994     5.4605104045
   34      H      -5.5501825669     0.7269873307     6.6120457407
   35      C      -5.2773870759    -3.3586622763     3.3443325508
   36      H      -4.4054612895    -3.9479626427     3.0489153284
   37      H      -5.6065076684    -3.7727389940     4.3012750992
   38      C      -6.3842736614    -3.5498182157     2.3091394251
   39      H      -7.2988251586    -3.0386170411     2.6098192758
   40      H      -6.0867615620    -3.1580829770     1.3358099967
   41      H      -6.6224030232    -4.6066949710     2.1861286889
   42      B      -6.3664641404    -1.6904524763     5.6138002357
   43      C      -7.9078192945    -1.5662962808     5.5114485578
   44      C      -8.5045039226    -1.1178452797     4.3292037074
   45      H      -7.8838806551    -0.8125132043     3.4937689104
   46      C      -9.8832427256    -1.0941366649     4.2178108685
   47      C     -10.6858437229    -1.4752389468     5.3164318219
   48      C     -10.1053611807    -1.8984655919     6.4949747158
   49      H     -10.7326954544    -2.2010015671     7.3250211825
   50      C      -8.7147733747    -1.9672396312     6.6022521555
   51      C     -12.0894700817    -1.3818637216     4.9173301522
   52      C     -13.2955725387    -1.6249819841     5.5231877960
   53      H     -13.3662845326    -1.9446165887     6.5560479218
   54      C     -12.0842315144    -0.9639951518     3.5746882076
   55      C     -13.2315655685    -0.7945350946     2.8043108698
   56      C     -10.7737878152    -0.7704175592     3.0987693874
   57      C     -10.6070870200    -0.3910929245     1.7914666518
   58      H      -9.6261370730    -0.2354974669     1.3597868327
   59      C     -14.4800415743    -1.4499862017     4.7679901386
   60      H     -15.4311849892    -1.6405927078     5.2480655444
   61      C     -14.4639368757    -1.0526179640     3.4509629405
   62      H     -15.3950256231    -0.9392136735     2.9088952240
   63      C     -13.0314305195    -0.3992852428     1.4598964294
   64      H     -13.8817484825    -0.2532775282     0.8047191154
   65      C     -11.7555726737    -0.2081890978     0.9833870036
   66      H     -11.6185673851     0.0876482464    -0.0485943828
   67      B      -8.0654620049    -2.5514894889     7.8916540837
   68      C      -6.5312955160    -2.7688939599     7.9535533238
   69      C      -5.9511807124    -3.4250490952     9.0432375288
   70      H      -6.5666975800    -3.7025264614     9.8928457946
   71      C      -4.6120497539    -3.7740689166     9.0078359491
   72      C      -3.8244310425    -3.4374225759     7.8858372867
   73      C      -4.3713273871    -2.7209280981     6.8371552670
   74      H      -3.7561608931    -2.4490776016     5.9869399320
   75      C      -5.7293824983    -2.3968527360     6.8467307961
   76      C      -3.7944845377    -4.5835911592     9.9112746933
   77      C      -4.0135484936    -5.2402550073    11.0930868467
   78      H      -4.9601628390    -5.1793501852    11.6157345844
   79      C      -2.5436854440    -4.7287487930     9.2819205412
   80      C      -1.5110661337    -5.5228793194     9.7657557071
   81      C      -2.5077768797    -4.0483370787     8.0507620986
   82      C      -1.3871252655    -4.1553042169     7.2707322705
   83      H      -1.3128478785    -3.6713373067     6.3045094552
   84      C      -2.9710484080    -6.0353371938    11.6254645766
   85      H      -3.1442534755    -6.5557068883    12.5582946162
   86      C      -1.7583561935    -6.1843283876    10.9928232252
   87      H      -0.9975657856    -6.8193949268    11.4295805912
   88      C      -0.3582926731    -5.6091826291     8.9480428939
   89      H       0.4840874258    -6.2134975515     9.2612804995
   90      C      -0.3117281639    -4.9430181158     7.7448413156
   91      H       0.5732880186    -5.0322399265     7.1286607913
   92      C      -9.0509010440    -3.0249916844     9.0204662192
   93      C      -9.6488224268    -2.1073231747     9.8902526682
   94      C     -10.6931864170    -2.5132685058    10.7167304985
   95      H     -11.1904379522    -1.7996335826    11.3632953735
   96      C     -11.1428800985    -3.8195002559    10.6807422982
   97      C     -10.5198612427    -4.7458593715     9.8559906790
   98      H     -10.8856841639    -5.7667950108     9.8325974467
   99      C      -9.4836559555    -4.3606583468     9.0169242817
  100      N     -12.2976874133    -4.1808889650    11.4341432871
  101      C     -12.1113749664    -4.8466117947    12.6553127396
  102      C     -10.8692857083    -5.3539168541    13.0330274008
  103      H     -10.0117778505    -5.2248471807    12.3884710198
  104      C     -10.7131705380    -6.0177486471    14.2405522951
  105      H      -9.7341747497    -6.3900808462    14.5119011691
  106      C     -11.7933938513    -6.2173702631    15.0830762622
  107      H     -11.6760002988    -6.7468358626    16.0186974558
  108      C     -13.0352229049    -5.7233525221    14.7141579747
  109      H     -13.8938394028    -5.8649543801    15.3584833394
  110      C     -13.1887313763    -5.0222965816    13.5286976244
  111      C     -13.5125113882    -4.2742805971    10.7339172931
  112      C     -13.5736770864    -4.2419708395     9.3390530882
  113      H     -12.6731875334    -4.1329114127     8.7529657987
  114      C     -14.7879563013    -4.3390240455     8.6748964584
  115      H     -14.7960879249    -4.3054456982     7.5927499481
  116      C     -15.9700114193    -4.4965224933     9.3770903995
  117      H     -16.9157797638    -4.5871633500     8.8604642180
  118      C     -15.9246979688    -4.5333293644    10.7620050526
  119      H     -16.8354266731    -4.6502330654    11.3358770187
  120      C     -14.7184403242    -4.3961463255    11.4314793936
  121      C      -8.8910990360    -5.3571425651     8.0591035886
  122      H      -9.3927555757    -6.3219044632     8.1269074624
  123      H      -7.8293667844    -5.5231030068     8.2478849178
  124      H      -8.9804239525    -5.0165303276     7.0244835118
  125      C      -9.1800454240    -0.6780689363     9.9375870622
  126      H      -9.9867726702    -0.0392339032    10.3044077016
  127      H      -8.9536130525    -0.3213649054     8.9279888044
  128      C      -7.9505457545    -0.5046105478    10.8256861774
  129      H      -7.1110357025    -1.0958583614    10.4585476738
  130      H      -7.6339813645     0.5383539638    10.8549282720
  131      H      -8.1590337110    -0.8217989933    11.8478777570
  132      S     -14.7237098825    -4.2359458788    13.1817634101
 ----------------------------------------------------------------

   14   -3799.4395102137      5.00E-10 Convergence criterion met
 Total energy in the final basis set = -3799.43951021
 Final energy is   -3799.43951021369
 **  OPTIMIZATION CONVERGED  **

                    Orbital Energies (a.u.)
 --------------------------------------------------------------

 Alpha MOs
 -- Occupied --
-89.596 -89.596 -14.683 -14.682 -10.504 -10.502 -10.502 -10.502
-10.488 -10.488 -10.482 -10.481 -10.481 -10.481 -10.469 -10.468
-10.468 -10.468 -10.467 -10.467 -10.467 -10.467 -10.467 -10.467
-10.465 -10.464 -10.464 -10.464 -10.464 -10.464 -10.464 -10.464
-10.463 -10.463 -10.461 -10.461 -10.461 -10.461 -10.461 -10.460
-10.459 -10.459 -10.459 -10.458 -10.454 -10.453 -10.453 -10.453
-10.451 -10.450 -10.450 -10.449 -10.449 -10.449 -10.449 -10.448
-10.448 -10.448 -10.447 -10.447 -10.447 -10.446 -10.446 -10.444
-10.444 -10.444 -10.441 -10.441 -10.440 -10.440 -10.440 -10.440
-10.434 -10.434 -10.433 -10.433 -10.425 -10.424  -8.236  -8.235
 -6.956  -6.956  -6.127  -6.127  -6.124  -6.123  -6.118  -6.118
 -1.091  -1.091  -1.020  -1.020  -0.977  -0.976  -0.969  -0.968
 -0.967  -0.964  -0.954  -0.953  -0.936  -0.936  -0.914  -0.905
 -0.902  -0.901  -0.890  -0.890  -0.867  -0.862  -0.859  -0.858
 -0.858  -0.856  -0.850  -0.849  -0.845  -0.845  -0.827  -0.822
 -0.822  -0.819  -0.816  -0.810  -0.810  -0.809  -0.775  -0.775
 -0.767  -0.766  -0.739  -0.735  -0.730  -0.724  -0.722  -0.720
 -0.715  -0.714  -0.711  -0.711  -0.692  -0.683  -0.682  -0.682
 -0.681  -0.670  -0.660  -0.653  -0.651  -0.651  -0.647  -0.646
 -0.635  -0.634  -0.618  -0.617  -0.600  -0.599  -0.594  -0.592
 -0.590  -0.590  -0.587  -0.579  -0.578  -0.562  -0.562  -0.559
 -0.554  -0.547  -0.546  -0.545  -0.539  -0.538  -0.531  -0.531
 -0.527  -0.527  -0.526  -0.521  -0.516  -0.514  -0.506  -0.505
 -0.504  -0.501  -0.500  -0.499  -0.498  -0.497  -0.496  -0.495
 -0.493  -0.489  -0.488  -0.487  -0.484  -0.483  -0.483  -0.482
 -0.481  -0.478  -0.478  -0.476  -0.475  -0.471  -0.471  -0.468
 -0.463  -0.458  -0.453  -0.449  -0.448  -0.447  -0.445  -0.443
 -0.442  -0.438  -0.434  -0.432  -0.431  -0.430  -0.429  -0.428
 -0.426  -0.425  -0.424  -0.418  -0.417  -0.416  -0.405  -0.404
 -0.401  -0.400  -0.399  -0.398  -0.398  -0.396  -0.395  -0.394
 -0.393  -0.390  -0.387  -0.386  -0.385  -0.382  -0.380  -0.375
 -0.371  -0.369  -0.363  -0.357  -0.353  -0.348  -0.347  -0.347
 -0.324  -0.318  -0.306  -0.305  -0.300  -0.299  -0.298  -0.297
 -0.287  -0.285  -0.284  -0.283  -0.282  -0.269  -0.268  -0.266
 -0.262  -0.259  -0.225  -0.224

          Ground-State Mulliken Net Atomic Charges

     Atom                 Charge (a.u.)
  ----------------------------------------
      1 S                     0.132040
      2 C                    -0.197863
      3 C                    -0.256448
      4 H                     0.244224
      5 C                    -0.245533
      6 H                     0.232663
      7 C                    -0.235226
      8 H                     0.235306
      9 C                    -0.308397
     10 H                     0.266224
     11 C                     0.422262
     12 N                    -0.713520
     13 C                     0.421284
     14 C                    -0.303201
     15 H                     0.261191
     16 C                    -0.234924
     17 H                     0.232346
     18 C                    -0.244702
     19 H                     0.232457
     20 C                    -0.258170
     21 H                     0.243928
     22 C                    -0.191804
     23 C                     0.222577
     24 C                    -0.306832
     25 H                     0.235120
     26 C                    -0.336503
     27 H                     0.248282
     28 C                     0.032785
     29 C                     0.056136
     30 C                    -0.201824
     31 C                    -0.769867
     32 H                     0.249209
     33 H                     0.251474
     34 H                     0.252867
     35 C                    -0.546329
     36 H                     0.239792
     37 H                     0.253599
     38 C                    -0.646775
     39 H                     0.232530
     40 H                     0.223077
     41 H                     0.227506
     42 B                     0.684359
     43 C                    -0.152714
     44 C                    -0.400825
     45 H                     0.236773
     46 C                     0.094476
     47 C                     0.088190
     48 C                    -0.377222
     49 H                     0.239553
     50 C                    -0.150343
     51 C                     0.194570
     52 C                    -0.393043
     53 H                     0.239326
     54 C                    -0.062915
     55 C                     0.237875
     56 C                     0.190647
     57 C                    -0.389440
     58 H                     0.232794
     59 C                    -0.219246
     60 H                     0.242411
     61 C                    -0.338758
     62 H                     0.236979
     63 C                    -0.339609
     64 H                     0.237138
     65 C                    -0.216200
     66 H                     0.241795
     67 B                     0.673233
     68 C                    -0.147663
     69 C                    -0.400482
     70 H                     0.237328
     71 C                     0.088204
     72 C                     0.093443
     73 C                    -0.384061
     74 H                     0.238064
     75 C                    -0.159285
     76 C                     0.184973
     77 C                    -0.384204
     78 H                     0.232683
     79 C                    -0.061100
     80 C                     0.237961
     81 C                     0.184661
     82 C                    -0.382811
     83 H                     0.237325
     84 C                    -0.216815
     85 H                     0.241532
     86 C                    -0.339604
     87 H                     0.236977
     88 C                    -0.338676
     89 H                     0.236920
     90 C                    -0.218164
     91 H                     0.243101
     92 C                    -0.201714
     93 C                     0.067097
     94 C                    -0.315483
     95 H                     0.235360
     96 C                     0.209844
     97 C                    -0.326494
     98 H                     0.249170
     99 C                     0.032055
    100 N                    -0.703358
    101 C                     0.421307
    102 C                    -0.304617
    103 H                     0.262636
    104 C                    -0.234794
    105 H                     0.232941
    106 C                    -0.244901
    107 H                     0.232747
    108 C                    -0.255792
    109 H                     0.244455
    110 C                    -0.197081
    111 C                     0.417843
    112 C                    -0.307239
    113 H                     0.265861
    114 C                    -0.238646
    115 H                     0.234243
    116 C                    -0.244514
    117 H                     0.232588
    118 C                    -0.254924
    119 H                     0.244874
    120 C                    -0.196336
    121 C                    -0.765841
    122 H                     0.248129
    123 H                     0.251123
    124 H                     0.252631
    125 C                    -0.548866
    126 H                     0.241542
    127 H                     0.253453
    128 C                    -0.651268
    129 H                     0.236398
    130 H                     0.226232
    131 H                     0.223999
    132 S                     0.134259
  ----------------------------------------
  Sum of atomic charges =     0.000000

                    Cartesian Multipole Moments
 -----------------------------------------------------------------
    Charge (ESU x 10^10)
                 0.0000
    Dipole Moment (Debye)
         X       0.1580      Y      -1.7174      Z      -0.3497
       Tot       1.7598
    Quadrupole Moments (Debye-Ang)
        XX    -448.7299     XY     -13.2481     YY    -460.4842
        XZ      56.5258     YZ     -24.4970     ZZ    -467.0468

 Total job time:  82141.44s(wall), 198631.50s(cpu)
        *  Thank you very much for using Q-Chem.  Have a nice day.  *
