 Q-Chem 5.0, Q-Chem, Inc., Pleasanton, CA (2017)
 Q-Chem 5.0.1 for Intel X86 EM64T Linux

User input:
--------------------------------------------------------------
$rem
threads 4
jobtype	opt
method PBEh-3c
basis def2-mSVP
mem_static	1024
mem_total	4000
sym_ignore	true
scf_convergence	9
solvent_method	pcm
$end

$molecule
read gsopt.mol
$end

$solvent
dielectric	2.38
$end

$pcm
theory iefpcm
$end
--------------------------------------------------------------

   17   -3799.4454315949      5.75E-10 Convergence criterion met
 Total energy in the final basis set = -3799.44543159
   15   -3799.4451186812      5.58E-10 Convergence criterion met
 Total energy in the final basis set = -3799.44511868
   14   -3799.4441122792      9.24E-10 Convergence criterion met
 Total energy in the final basis set = -3799.44411228
   15   -3799.4425051660      5.21E-10 Convergence criterion met
 Total energy in the final basis set = -3799.44250517
   15   -3799.4422134141      5.21E-10 Convergence criterion met
 Total energy in the final basis set = -3799.44221341
   14   -3799.4426774968      8.27E-10 Convergence criterion met
 Total energy in the final basis set = -3799.44267750
   14   -3799.4426112259      7.17E-10 Convergence criterion met
 Total energy in the final basis set = -3799.44261123
   14   -3799.4422173530      7.58E-10 Convergence criterion met
   14   -3799.4426959516      8.48E-10 Convergence criterion met
 Total energy in the final basis set = -3799.44269595
   14   -3799.4423782328      8.03E-10 Convergence criterion met
 Total energy in the final basis set = -3799.44237823
   14   -3799.4423660918      5.86E-10 Convergence criterion met
 Total energy in the final basis set = -3799.44236609
   14   -3799.4424408944      5.74E-10 Convergence criterion met
 Total energy in the final basis set = -3799.44244089
   14   -3799.4424691723      5.87E-10 Convergence criterion met
 Total energy in the final basis set = -3799.44246917
   14   -3799.4424795739      5.76E-10 Convergence criterion met
 Total energy in the final basis set = -3799.44247957

             Standard Nuclear Orientation (Angstroms)
    I     Atom           X                Y                Z
 ----------------------------------------------------------------
    1      S      -0.5741133037     0.7226579157    -0.3772373435
    2      C      -0.2728628839     0.9050718045     1.3469983229
    3      C       1.0192373540     1.1488422909     1.7852840769
    4      H       1.7958108549     1.3414735457     1.0556312656
    5      C       1.3198140827     1.1167476905     3.1383396030
    6      H       2.3332999495     1.2883065393     3.4741326425
    7      C       0.3064130248     0.8541107659     4.0442240201
    8      H       0.5194445564     0.8147204140     5.1043557330
    9      C      -0.9969961403     0.6532291694     3.6142988886
   10      H      -1.7656307541     0.4604570586     4.3487852121
   11      C      -1.3122790127     0.6832081047     2.2559243034
   12      N      -2.6212742426     0.4891638264     1.7894402887
   13      C      -3.0852120502     1.1091276853     0.6215523437
   14      C      -4.4213485723     1.4814301208     0.4716235513
   15      H      -5.1304297245     1.2935416881     1.2650894474
   16      C      -4.8654760663     2.0770354075    -0.6996110684
   17      H      -5.9112091606     2.3403197880    -0.7905580678
   18      C      -3.9867109028     2.3441904272    -1.7356498241
   19      H      -4.3301796313     2.8169765216    -2.6457172075
   20      C      -2.6536376191     1.9895084371    -1.5944811530
   21      H      -1.9493822616     2.1821895553    -2.3941211262
   22      C      -2.2134160493     1.3554655665    -0.4429479497
   23      C      -3.5917439785    -0.0295601346     2.6937532521
   24      C      -3.9435415956    -1.3621529361     2.6014058662
   25      H      -3.4874601097    -1.9779727041     1.8343117360
   26      C      -4.1814698977     0.7785475458     3.6574425984
   27      H      -3.9138284966     1.8281108993     3.7087795003
   28      C      -5.0892785685     0.2450602630     4.5604735506
   29      C      -4.8601152133    -1.9159693000     3.4924849334
   30      C      -5.4201002475    -1.1177800838     4.4937636268
   31      C      -5.7110485504     1.1195002320     5.6125874823
   32      H      -5.2782158496     2.1190931931     5.6112126417
   33      H      -6.7864589105     1.2244192369     5.4557320002
   34      H      -5.5729820266     0.7045294592     6.6138178664
   35      C      -5.2477960533    -3.3640573613     3.3291584726
   36      H      -4.3698860140    -3.9456987717     3.0363929569
   37      H      -5.5804316384    -3.7850539172     4.2818080794
   38      C      -6.3467780767    -3.5575016720     2.2859459541
   39      H      -7.2662176364    -3.0527923323     2.5828329682
   40      H      -6.0452860561    -3.1599492945     1.3161862658
   41      H      -6.5777932750    -4.6152687600     2.1571225062
   42      B      -6.3628950557    -1.7125206458     5.6014994520
   43      C      -7.9042351163    -1.5899317396     5.4932078897
   44      C      -8.4970657067    -1.1426514944     4.3085921002
   45      H      -7.8743072664    -0.8385946655     3.4743116664
   46      C      -9.8755270205    -1.1178299736     4.1932898853
   47      C     -10.6818795455    -1.4964389327     5.2901425688
   48      C     -10.1051514854    -1.9179437646     6.4713062826
   49      H     -10.7350605874    -2.2174343015     7.3005330583
   50      C      -8.7149143115    -1.9882743063     6.5823062593
   51      C     -12.0842338005    -1.4013378969     4.8867830567
   52      C     -13.2926316265    -1.6418191773     5.4892976338
   53      H     -13.3668036923    -1.9608221368     6.5220977165
   54      C     -12.0743857381    -0.9845885424     3.5437415467
   55      C     -13.2192603251    -0.8133003212     2.7699710103
   56      C     -10.7622416937    -0.7936216329     3.0713574631
   57      C     -10.5910070673    -0.4149551329     1.7643404893
   58      H      -9.6085333145    -0.2611075392     1.3354837539
   59      C     -14.4746650098    -1.4651765487     4.7304965357
   60      H     -15.4275501140    -1.6538893384     5.2078732431
   61      C     -14.4540982211    -1.0685984279     3.4131870837
   62      H     -15.3833780658    -0.9537427186     2.8683140546
   63      C     -13.0146288391    -0.4188712556     1.4259197710
   64      H     -13.8628985264    -0.2714528820     0.7683835826
   65      C     -11.7369638269    -0.2302155974     0.9529444174
   66      H     -11.5964943311     0.0651551928    -0.0787156927
   67      B      -8.0700065723    -2.5695841408     7.8750368968
   68      C      -6.5367366589    -2.7934771923     7.9392965481
   69      C      -5.9616743199    -3.4535703053     9.0292766488
   70      H      -6.5794522013    -3.7293187917     9.8777622282
   71      C      -4.6242167946    -3.8092346812     8.9954949046
   72      C      -3.8325966863    -3.4739578558     7.8758391902
   73      C      -4.3739388506    -2.7521908501     6.8277284580
   74      H      -3.7552287394    -2.4808319912     5.9799241946
   75      C      -5.7308404178    -2.4230046609     6.8347196570
   76      C      -3.8130027103    -4.6256395276     9.8984597488
   77      C      -4.0385711859    -5.2849996180    11.0776751656
   78      H      -4.9859683492    -5.2203422781    11.5984776487
   79      C      -2.5618076685    -4.7761510335     9.2710281676
   80      C      -1.5350864398    -5.5784390586     9.7542328636
   81      C      -2.5196182106    -4.0926475355     8.0416992629
   82      C      -1.3983103584    -4.2047088978     7.2631342046
   83      H      -1.3194632377    -3.7188761647     6.2982049856
   84      C      -3.0019168046    -6.0882439038    11.6094502143
   85      H      -3.1802076247    -6.6107898830    12.5401185569
   86      C      -1.7888159383    -6.2425737024    10.9786172547
   87      H      -1.0328127327    -6.8839604478    11.4144861599
   88      C      -0.3813890491    -5.6698420515     8.9382538951
   89      H       0.4565163436    -6.2805101797     9.2512147453
   90      C      -0.3286248422    -5.0005326960     7.7369230857
   91      H       0.5567970349    -5.0936786910     7.1218820611
   92      C      -9.0566459270    -3.0317139525     9.0075469404
   93      C      -9.6419985585    -2.1061316340     9.8773403871
   94      C     -10.6825568457    -2.5015503245    10.7138261636
   95      H     -11.1699341575    -1.7816488479    11.3610598722
   96      C     -11.1401935788    -3.8052685075    10.6878895644
   97      C     -10.5303262206    -4.7393667619     9.8618595194
   98      H     -10.9020797512    -5.7583207779     9.8464279135
   99      C      -9.4985594610    -4.3643948138     9.0127221229
  100      N     -12.2893852319    -4.1564375471    11.4549059654
  101      C     -12.0940566280    -4.8147792027    12.6785958790
  102      C     -10.8510014745    -5.3270778272    13.0466432687
  103      H      -9.9997151670    -5.2084584598    12.3918752134
  104      C     -10.6858947437    -5.9828489840    14.2574492166
  105      H      -9.7063009673    -6.3592280775    14.5209999920
  106      C     -11.7582725059    -6.1695593184    15.1131111508
  107      H     -11.6339664901    -6.6927143856    16.0514091268
  108      C     -13.0011326573    -5.6707341133    14.7538968992
  109      H     -13.8534692697    -5.8021707435    15.4086779893
  110      C     -13.1630177471    -4.9776766780    13.5647275705
  111      C     -13.5117173348    -4.2488238768    10.7677419539
  112      C     -13.5867410481    -4.2270420744     9.3733529456
  113      H     -12.6916612637    -4.1267132817     8.7775134181
  114      C     -14.8082060348    -4.3231278844     8.7222776751
  115      H     -14.8272210880    -4.2973939792     7.6400832551
  116      C     -15.9839681207    -4.4691066871     9.4376635744
  117      H     -16.9354195973    -4.5586857311     8.9313555467
  118      C     -15.9250024332    -4.4950175962    10.8224042431
  119      H     -16.8306977203    -4.6021512460    11.4061185407
  120      C     -14.7111493031    -4.3588365924    11.4784465028
  121      C      -8.9189067714    -5.3688419016     8.0553104170
  122      H      -9.4278811055    -6.3293478648     8.1287198703
  123      H      -7.8576279256    -5.5427976537     8.2396711787
  124      H      -9.0103746892    -5.0307516087     7.0200494398
  125      C      -9.1626623706    -0.6801627532     9.9155355414
  126      H      -9.9648512780    -0.0327842118    10.2772331637
  127      H      -8.9322911397    -0.3321044662     8.9038442321
  128      C      -7.9328517940    -0.5104447875    10.8040148746
  129      H      -7.0980655363    -1.1118531960    10.4425683166
  130      H      -7.6074472162     0.5299884456    10.8257306409
  131      H      -8.1455347230    -0.8180171621    11.8283106619
  132      S     -14.6969243488    -4.1846836108    13.2275244690
 ----------------------------------------------------------------

   14   -3799.4424791752      5.60E-10 Convergence criterion met
 Total energy in the final basis set = -3799.44247918
 Final energy is   -3799.44247917525
 **  OPTIMIZATION CONVERGED  **

                    Orbital Energies (a.u.)
 --------------------------------------------------------------

 Alpha MOs
 -- Occupied --
-89.597 -89.597 -14.684 -14.682 -10.504 -10.503 -10.503 -10.502
-10.488 -10.488 -10.482 -10.482 -10.481 -10.481 -10.469 -10.468
-10.468 -10.468 -10.467 -10.467 -10.467 -10.467 -10.467 -10.467
-10.465 -10.464 -10.464 -10.464 -10.464 -10.464 -10.464 -10.463
-10.463 -10.462 -10.461 -10.461 -10.461 -10.461 -10.460 -10.460
-10.459 -10.459 -10.458 -10.458 -10.455 -10.454 -10.454 -10.454
-10.451 -10.450 -10.450 -10.450 -10.450 -10.449 -10.449 -10.448
-10.448 -10.448 -10.448 -10.447 -10.446 -10.446 -10.446 -10.445
-10.445 -10.444 -10.441 -10.441 -10.440 -10.440 -10.440 -10.439
-10.434 -10.434 -10.433 -10.432 -10.425 -10.424  -8.237  -8.236
 -6.956  -6.956  -6.128  -6.127  -6.125  -6.124  -6.119  -6.119
 -1.091  -1.091  -1.020  -1.020  -0.977  -0.977  -0.969  -0.969
 -0.967  -0.964  -0.954  -0.953  -0.936  -0.935  -0.914  -0.905
 -0.903  -0.902  -0.890  -0.890  -0.867  -0.862  -0.859  -0.859
 -0.858  -0.856  -0.849  -0.849  -0.846  -0.845  -0.827  -0.822
 -0.822  -0.819  -0.816  -0.810  -0.809  -0.809  -0.775  -0.775
 -0.767  -0.767  -0.739  -0.735  -0.729  -0.724  -0.722  -0.720
 -0.714  -0.714  -0.712  -0.711  -0.692  -0.683  -0.682  -0.682
 -0.681  -0.670  -0.660  -0.653  -0.651  -0.650  -0.647  -0.646
 -0.635  -0.634  -0.619  -0.618  -0.600  -0.599  -0.594  -0.591
 -0.590  -0.590  -0.587  -0.579  -0.577  -0.562  -0.561  -0.559
 -0.554  -0.547  -0.546  -0.546  -0.539  -0.538  -0.531  -0.531
 -0.527  -0.527  -0.526  -0.521  -0.516  -0.514  -0.506  -0.505
 -0.504  -0.501  -0.500  -0.499  -0.498  -0.497  -0.496  -0.495
 -0.493  -0.489  -0.488  -0.487  -0.484  -0.483  -0.483  -0.482
 -0.481  -0.478  -0.478  -0.477  -0.474  -0.471  -0.470  -0.468
 -0.463  -0.458  -0.453  -0.449  -0.448  -0.447  -0.445  -0.442
 -0.441  -0.438  -0.434  -0.433  -0.432  -0.430  -0.429  -0.428
 -0.426  -0.425  -0.424  -0.418  -0.417  -0.416  -0.405  -0.404
 -0.401  -0.400  -0.399  -0.398  -0.397  -0.396  -0.395  -0.394
 -0.393  -0.390  -0.386  -0.386  -0.384  -0.383  -0.381  -0.375
 -0.371  -0.369  -0.363  -0.357  -0.353  -0.348  -0.348  -0.347
 -0.324  -0.318  -0.306  -0.305  -0.300  -0.300  -0.298  -0.297
 -0.287  -0.285  -0.284  -0.283  -0.282  -0.269  -0.268  -0.265
 -0.262  -0.259  -0.226  -0.224

          Ground-State Mulliken Net Atomic Charges

     Atom                 Charge (a.u.)
  ----------------------------------------
      1 S                     0.130096
      2 C                    -0.199319
      3 C                    -0.257878
      4 H                     0.246670
      5 C                    -0.248115
      6 H                     0.235357
      7 C                    -0.237185
      8 H                     0.238059
      9 C                    -0.310369
     10 H                     0.268249
     11 C                     0.421795
     12 N                    -0.711988
     13 C                     0.420630
     14 C                    -0.304810
     15 H                     0.263016
     16 C                    -0.237045
     17 H                     0.235190
     18 C                    -0.247299
     19 H                     0.235154
     20 C                    -0.259631
     21 H                     0.246387
     22 C                    -0.193065
     23 C                     0.220535
     24 C                    -0.308217
     25 H                     0.236812
     26 C                    -0.335904
     27 H                     0.250038
     28 C                     0.031107
     29 C                     0.055525
     30 C                    -0.201296
     31 C                    -0.770819
     32 H                     0.250662
     33 H                     0.251880
     34 H                     0.253274
     35 C                    -0.546192
     36 H                     0.240721
     37 H                     0.253674
     38 C                    -0.647819
     39 H                     0.232242
     40 H                     0.223451
     41 H                     0.228263
     42 B                     0.684624
     43 C                    -0.153130
     44 C                    -0.400754
     45 H                     0.237909
     46 C                     0.092992
     47 C                     0.086693
     48 C                    -0.377831
     49 H                     0.240718
     50 C                    -0.150574
     51 C                     0.192820
     52 C                    -0.393133
     53 H                     0.240880
     54 C                    -0.063282
     55 C                     0.235303
     56 C                     0.189287
     57 C                    -0.390309
     58 H                     0.235521
     59 C                    -0.221338
     60 H                     0.244691
     61 C                    -0.339947
     62 H                     0.239850
     63 C                    -0.340751
     64 H                     0.239990
     65 C                    -0.218657
     66 H                     0.244340
     67 B                     0.673549
     68 C                    -0.147948
     69 C                    -0.400328
     70 H                     0.238949
     71 C                     0.086525
     72 C                     0.092128
     73 C                    -0.385019
     74 H                     0.239380
     75 C                    -0.159170
     76 C                     0.183422
     77 C                    -0.385037
     78 H                     0.235532
     79 C                    -0.061418
     80 C                     0.235250
     81 C                     0.183079
     82 C                    -0.383552
     83 H                     0.239712
     84 C                    -0.219278
     85 H                     0.244084
     86 C                    -0.340699
     87 H                     0.239797
     88 C                    -0.339843
     89 H                     0.239755
     90 C                    -0.220504
     91 H                     0.245524
     92 C                    -0.202033
     93 C                     0.065920
     94 C                    -0.317221
     95 H                     0.237031
     96 C                     0.210064
     97 C                    -0.327446
     98 H                     0.250903
     99 C                     0.031830
    100 N                    -0.703057
    101 C                     0.420580
    102 C                    -0.305959
    103 H                     0.264180
    104 C                    -0.237041
    105 H                     0.235780
    106 C                    -0.247407
    107 H                     0.235429
    108 C                    -0.257544
    109 H                     0.246907
    110 C                    -0.198026
    111 C                     0.417126
    112 C                    -0.308380
    113 H                     0.267472
    114 C                    -0.240166
    115 H                     0.236496
    116 C                    -0.246950
    117 H                     0.235322
    118 C                    -0.256696
    119 H                     0.247317
    120 C                    -0.197374
    121 C                    -0.766788
    122 H                     0.249384
    123 H                     0.251332
    124 H                     0.252890
    125 C                    -0.549490
    126 H                     0.242701
    127 H                     0.253801
    128 C                    -0.652373
    129 H                     0.236340
    130 H                     0.226922
    131 H                     0.224342
    132 S                     0.132239
  ----------------------------------------
  Sum of atomic charges =     0.000000

                    Cartesian Multipole Moments
 -----------------------------------------------------------------
    Charge (ESU x 10^10)
                 0.0000
    Dipole Moment (Debye)
         X       0.1135      Y      -1.8312      Z      -0.4078
       Tot       1.8795
    Quadrupole Moments (Debye-Ang)
        XX    -447.5244     XY     -12.6152     YY    -459.3074
        XZ      57.7486     YZ     -25.3598     ZZ    -467.5142

 Total job time:  79208.73s(wall), 193210.66s(cpu)
        *  Thank you very much for using Q-Chem.  Have a nice day.  *
