 Q-Chem 5.0, Q-Chem, Inc., Pleasanton, CA (2017)
 Q-Chem 5.0.1 for Intel X86 EM64T Linux

User input:
--------------------------------------------------------------
$rem
threads 4
jobtype	opt
method PBEh-3c
basis def2-mSVP
mem_static	1024
mem_total	4000
sym_ignore	true
scf_convergence	9
solvent_method	pcm
$end

$molecule
read gsopt.mol
$end

$solvent
dielectric	8.93
$end

$pcm
theory iefpcm
$end
--------------------------------------------------------------

   17   -2280.7372546625      2.96E-10 Convergence criterion met
 Total energy in the final basis set = -2280.73725466
   15   -2280.7390902519      5.94E-10 Convergence criterion met
 Total energy in the final basis set = -2280.73909025
   15   -2280.7396800613      5.58E-10 Convergence criterion met
 Total energy in the final basis set = -2280.73968006
   15   -2280.7398071747      4.97E-10 Convergence criterion met
 Total energy in the final basis set = -2280.73980717
   15   -2280.7399266967      4.44E-10 Convergence criterion met
 Total energy in the final basis set = -2280.73992670
   15   -2280.7400950685      4.72E-10 Convergence criterion met
 Total energy in the final basis set = -2280.74009507
   15   -2280.7401840910      4.04E-10 Convergence criterion met
 Total energy in the final basis set = -2280.74018409
   15   -2280.7401289099      3.58E-10 Convergence criterion met
   15   -2280.7402325995      4.08E-10 Convergence criterion met
 Total energy in the final basis set = -2280.74023260
   15   -2280.7402500201      3.91E-10 Convergence criterion met
 Total energy in the final basis set = -2280.74025002
   15   -2280.7402640634      3.83E-10 Convergence criterion met
 Total energy in the final basis set = -2280.74026406
   15   -2280.7402749816      3.75E-10 Convergence criterion met
 Total energy in the final basis set = -2280.74027498
   15   -2280.7402800653      3.74E-10 Convergence criterion met
 Total energy in the final basis set = -2280.74028007
   15   -2280.7402828395      3.80E-10 Convergence criterion met
 Total energy in the final basis set = -2280.74028284

             Standard Nuclear Orientation (Angstroms)
    I     Atom           X                Y                Z
 ----------------------------------------------------------------
    1      C       0.0308453793    -0.4714882968     0.0720509863
    2      C       0.0227980265    -0.4844924045     1.4734722499
    3      H       0.9604501203    -0.5078224393     2.0178251248
    4      C      -1.1792577373    -0.4679051291     2.1627601875
    5      C      -2.3950889260    -0.4386299488     1.4432073832
    6      C      -2.4002474082    -0.4314079197     0.0618130410
    7      H      -3.3411836604    -0.4184491062    -0.4774995422
    8      C      -1.1942927771    -0.4442267811    -0.6402015585
    9      C      -1.5085974696    -0.4778872298     3.5927516826
   10      C      -0.7968408371    -0.5058473873     4.7634270321
   11      H       0.2857774680    -0.5259184145     4.7760064025
   12      C      -2.9158582124    -0.4539385378     3.6711267117
   13      C      -3.6456634451    -0.4565925002     4.8545608108
   14      C      -3.5016657809    -0.4290941623     2.3928008738
   15      C      -4.8682999900    -0.4044597435     2.2838069061
   16      H      -5.3667792041    -0.3845068182     1.3220887738
   17      C      -1.5106473504    -0.5088660862     5.9876572758
   18      H      -0.9461722962    -0.5312080519     6.9105807820
   19      C      -2.8856691799    -0.4853076509     6.0486308811
   20      H      -3.3844925395    -0.4891350532     7.0100000487
   21      C      -5.6356387974    -0.4057335835     3.4726525896
   22      H      -6.7148757028    -0.3863331625     3.3924855789
   23      C      -5.0568432144    -0.4310711070     4.7216630710
   24      H      -5.6837094096    -0.4314995924     5.6050305980
   25      B      -1.2108664380    -0.4477894860    -2.1965869980
   26      B       1.3795864302    -0.4902885053    -0.7107924836
   27      C       1.3718879239    -0.4335356678    -2.2684116524
   28      C       2.5779554348    -0.4286352497    -2.9824405618
   29      H       3.5211292584    -0.4537413395    -2.4481453344
   30      C       2.5654381939    -0.3988641084    -4.3666958999
   31      C       1.3305856520    -0.3837907911    -5.0532271236
   32      C       0.1359301857    -0.3981572294    -4.3619876325
   33      H      -0.8034459605    -0.3952413444    -4.9037931326
   34      C       0.1399923078    -0.4205426511    -2.9668892209
   35      C       1.5932742766    -0.3615820323    -6.4883502546
   36      C       0.8129277125    -0.3414355221    -7.6161293934
   37      H      -0.2691032509    -0.3366347237    -7.5645014461
   38      C       2.9919322809    -0.3663215688    -6.6275700563
   39      C       3.6466940455    -0.3536161068    -7.8557864830
   40      C       3.6343336705    -0.3890754634    -5.3739644832
   41      C       5.0048905448    -0.4000627523    -5.3536090937
   42      H       5.5638174430    -0.4190025908    -4.4264746432
   43      C       1.4524882770    -0.3268741444    -8.8786916312
   44      H       0.8383893654    -0.3109604400    -9.7699191929
   45      C       2.8227065906    -0.3329477083    -9.0087075746
   46      H       3.2713742220    -0.3223418976    -9.9946463270
   47      C       5.7024177315    -0.3875675294    -6.5872572508
   48      H       6.7842979046    -0.3966978218    -6.5653526954
   49      C       5.0608740267    -0.3649074011    -7.8047364846
   50      H       5.6377002301    -0.3564161350    -8.7216109836
   51      C       2.7417703482    -0.5918105589     0.0589557125
   52      C       3.5249813488     0.5414221254     0.2932311610
   53      C       4.7311234147     0.4404758091     0.9858769334
   54      H       5.3088485206     1.3411217307     1.1551969271
   55      C       5.1714852078    -0.7946776255     1.4454213178
   56      O       6.3217812704    -0.9901528405     2.1231274810
   57      C       4.3984274864    -1.9290037685     1.2069605719
   58      H       4.7487826548    -2.8923313399     1.5621717697
   59      C       3.1963654832    -1.8365717181     0.5243083686
   60      C       7.1369609836     0.1266370665     2.3970035163
   61      H       7.9989834957    -0.2453606164     2.9462005758
   62      H       6.6237624325     0.8698585664     3.0140495045
   63      H       7.4884592295     0.6140266202     1.4830593578
   64      C       3.0530217641     1.9060386975    -0.1403287035
   65      H       3.9150693696     2.5335049366    -0.3797912723
   66      H       2.4726158971     1.8320564669    -1.0642425450
   67      C       2.4229333342    -3.0998650516     0.2375694549
   68      H       2.5638391709    -3.8093088989     1.0565411372
   69      H       1.3502044520    -2.8906168310     0.2050288297
   70      C       2.2077832849     2.5981193060     0.9274780307
   71      H       1.3080045658     2.0252215435     1.1535802773
   72      H       1.8946640252     3.5881714066     0.5940257451
   73      H       2.7679597671     2.7170992871     1.8555985642
   74      C       2.8441718643    -3.7598139674    -1.0747753785
   75      H       2.6786301755    -3.0974854450    -1.9249951909
   76      H       3.9024003307    -4.0230845406    -1.0595894962
   77      H       2.2739445173    -4.6729175222    -1.2505927736
   78      C      -2.5697592552    -0.5057789561    -2.9909020187
   79      C      -3.0521405109    -1.7284689691    -3.4669290051
   80      C      -4.2457387398    -1.7988009690    -4.1837915444
   81      H      -4.5831790353    -2.7680414963    -4.5311107675
   82      C      -4.9793603306    -0.6477141030    -4.4359872261
   83      O      -6.1434858897    -0.6181323928    -5.1177838377
   84      C      -4.5068886227     0.5751352744    -3.9661648157
   85      H      -5.0790065349     1.4746995771    -4.1677273499
   86      C      -3.3194672115     0.6526114950    -3.2551084312
   87      C      -6.6638875416    -1.8316207998    -5.6132685992
   88      H      -7.5931717890    -1.5859759671    -6.1223884418
   89      H      -6.8821110425    -2.5441352932    -4.8125338009
   90      H      -5.9887556589    -2.3081375131    -6.3299644132
   91      C      -2.8200820594     2.0122578081    -2.8406868018
   92      H      -3.6645923189     2.6389401205    -2.5436963236
   93      H      -2.1800210212     1.9333013413    -1.9575024568
   94      C      -2.3362121599    -3.0213215596    -3.1665645246
   95      H      -1.2728029728    -2.8392674540    -2.9895602987
   96      H      -2.3834205219    -3.6791351246    -4.0383912606
   97      C      -2.0510186238     2.7041925455    -3.9647656917
   98      H      -1.1763345000     2.1236238144    -4.2592169131
   99      H      -2.6788716894     2.8291334780    -4.8477961537
  100      H      -1.7070962036     3.6912718510    -3.6539414702
  101      C      -2.9337218903    -3.7405131953    -1.9590484383
  102      H      -2.8850713849    -3.1154953143    -1.0665846023
  103      H      -3.9809120806    -3.9924504237    -2.1312162037
  104      H      -2.3961269283    -4.6659492048    -1.7495982158
 ----------------------------------------------------------------

   15   -2280.7402862448      3.79E-10 Convergence criterion met
 Total energy in the final basis set = -2280.74028624
 Final energy is   -2280.74028624478
 **  OPTIMIZATION CONVERGED  **

                    Orbital Energies (a.u.)
 --------------------------------------------------------------

 Alpha MOs
 -- Occupied --
-19.527 -19.527 -10.505 -10.505 -10.483 -10.482 -10.467 -10.467
-10.466 -10.466 -10.465 -10.465 -10.464 -10.464 -10.464 -10.464
-10.464 -10.464 -10.461 -10.461 -10.461 -10.461 -10.461 -10.461
-10.458 -10.458 -10.458 -10.458 -10.457 -10.457 -10.454 -10.454
-10.453 -10.453 -10.453 -10.452 -10.449 -10.449 -10.438 -10.437
-10.436 -10.436 -10.435 -10.435 -10.435 -10.435 -10.435 -10.434
-10.433 -10.432 -10.421 -10.421 -10.421 -10.420 -10.420 -10.419
 -6.952  -6.951  -1.183  -1.182  -1.018  -1.018  -0.965  -0.961
 -0.958  -0.956  -0.933  -0.933  -0.911  -0.902  -0.890  -0.890
 -0.868  -0.865  -0.856  -0.855  -0.847  -0.846  -0.826  -0.822
 -0.819  -0.814  -0.813  -0.806  -0.803  -0.802  -0.774  -0.773
 -0.735  -0.729  -0.727  -0.721  -0.713  -0.713  -0.704  -0.703
 -0.689  -0.682  -0.680  -0.666  -0.658  -0.648  -0.647  -0.646
 -0.632  -0.631  -0.594  -0.594  -0.590  -0.587  -0.584  -0.583
 -0.583  -0.575  -0.574  -0.564  -0.564  -0.545  -0.543  -0.537
 -0.533  -0.533  -0.527  -0.523  -0.514  -0.508  -0.504  -0.504
 -0.503  -0.501  -0.500  -0.496  -0.495  -0.491  -0.489  -0.488
 -0.487  -0.485  -0.484  -0.482  -0.481  -0.479  -0.476  -0.466
 -0.463  -0.460  -0.459  -0.457  -0.454  -0.453  -0.444  -0.439
 -0.437  -0.436  -0.434  -0.431  -0.430  -0.428  -0.425  -0.419
 -0.414  -0.413  -0.410  -0.407  -0.401  -0.401  -0.398  -0.397
 -0.396  -0.394  -0.393  -0.392  -0.391  -0.389  -0.384  -0.383
 -0.380  -0.373  -0.364  -0.364  -0.361  -0.359  -0.356  -0.353
 -0.342  -0.340  -0.321  -0.315  -0.297  -0.296  -0.284  -0.279
 -0.278  -0.264  -0.260  -0.257  -0.254  -0.252

          Ground-State Mulliken Net Atomic Charges

     Atom                 Charge (a.u.)
  ----------------------------------------
      1 C                    -0.153349
      2 C                    -0.400369
      3 H                     0.250086
      4 C                     0.094936
      5 C                     0.068327
      6 C                    -0.390996
      7 H                     0.248100
      8 C                    -0.154630
      9 C                     0.178750
     10 C                    -0.397981
     11 H                     0.252480
     12 C                    -0.066900
     13 C                     0.221580
     14 C                     0.177754
     15 C                    -0.388465
     16 H                     0.252561
     17 C                    -0.231784
     18 H                     0.257164
     19 C                    -0.350664
     20 H                     0.254585
     21 C                    -0.234719
     22 H                     0.257656
     23 C                    -0.346361
     24 H                     0.254188
     25 B                     0.656805
     26 B                     0.656275
     27 C                    -0.155277
     28 C                    -0.398628
     29 H                     0.249630
     30 C                     0.095989
     31 C                     0.068278
     32 C                    -0.391071
     33 H                     0.250723
     34 C                    -0.153119
     35 C                     0.178091
     36 C                    -0.390196
     37 H                     0.252019
     38 C                    -0.066890
     39 C                     0.221004
     40 C                     0.179759
     41 C                    -0.399448
     42 H                     0.252055
     43 C                    -0.234185
     44 H                     0.257611
     45 C                    -0.345978
     46 H                     0.254272
     47 C                    -0.231375
     48 H                     0.256977
     49 C                    -0.350630
     50 H                     0.254705
     51 C                    -0.223185
     52 C                     0.074346
     53 C                    -0.447351
     54 H                     0.254728
     55 C                     0.389282
     56 O                    -0.469680
     57 C                    -0.403607
     58 H                     0.238417
     59 C                     0.066830
     60 C                    -0.428812
     61 H                     0.253546
     62 H                     0.220173
     63 H                     0.220201
     64 C                    -0.552825
     65 H                     0.241121
     66 H                     0.253569
     67 C                    -0.556132
     68 H                     0.243465
     69 H                     0.255690
     70 C                    -0.657412
     71 H                     0.238470
     72 H                     0.228191
     73 H                     0.221554
     74 C                    -0.657298
     75 H                     0.238010
     76 H                     0.222793
     77 H                     0.227320
     78 C                    -0.230943
     79 C                     0.063928
     80 C                    -0.443625
     81 H                     0.254979
     82 C                     0.389121
     83 O                    -0.470149
     84 C                    -0.397069
     85 H                     0.238190
     86 C                     0.070923
     87 C                    -0.428752
     88 H                     0.253592
     89 H                     0.220428
     90 H                     0.220356
     91 C                    -0.552007
     92 H                     0.242787
     93 H                     0.252238
     94 C                    -0.555086
     95 H                     0.257422
     96 H                     0.242272
     97 C                    -0.656289
     98 H                     0.235678
     99 H                     0.222799
    100 H                     0.227923
    101 C                    -0.653754
    102 H                     0.235173
    103 H                     0.221438
    104 H                     0.227677
  ----------------------------------------
  Sum of atomic charges =    -0.000000

                    Cartesian Multipole Moments
 -----------------------------------------------------------------
    Charge (ESU x 10^10)
                -0.0000
    Dipole Moment (Debye)
         X       0.2188      Y      -0.0899      Z      -0.3840
       Tot       0.4510
    Quadrupole Moments (Debye-Ang)
        XX    -277.4632     XY      21.5418     YY    -333.8855
        XZ      -3.2777     YZ      12.3484     ZZ    -272.9242

 Total job time:  45626.50s(wall), 105365.84s(cpu)
        *  Thank you very much for using Q-Chem.  Have a nice day.  *
