 Q-Chem 5.0, Q-Chem, Inc., Pleasanton, CA (2017)
 Q-Chem 5.0.1 for Intel X86 EM64T Linux

User input:
--------------------------------------------------------------
$rem
threads 4
jobtype	opt
method PBEh-3c
basis def2-mSVP
mem_static	1024
mem_total	4000
sym_ignore	true
scf_convergence	9
solvent_method	pcm
$end

$molecule
read gsopt.mol
$end

$solvent
dielectric	1.0001
$end

$pcm
theory iefpcm
$end
--------------------------------------------------------------

   17   -2280.7118796310      6.18E-10 Convergence criterion met
 Total energy in the final basis set = -2280.71187963
   15   -2280.7136009508      5.09E-10 Convergence criterion met
 Total energy in the final basis set = -2280.71360095
   15   -2280.7141690554      4.44E-10 Convergence criterion met
 Total energy in the final basis set = -2280.71416906
   15   -2280.7141112077      5.35E-10 Convergence criterion met
 Total energy in the final basis set = -2280.71411121
   15   -2280.7145821799      3.52E-10 Convergence criterion met
 Total energy in the final basis set = -2280.71458218
   14   -2280.7146951044      5.35E-10 Convergence criterion met
 Total energy in the final basis set = -2280.71469510
   13   -2280.7147926618      6.66E-10 Convergence criterion met
 Total energy in the final basis set = -2280.71479266
   13   -2280.7147923821      9.20E-10 Convergence criterion met
 Total energy in the final basis set = -2280.71479238
   13   -2280.7148257131      3.63E-10 Convergence criterion met
 Total energy in the final basis set = -2280.71482571
   12   -2280.7148268560      5.63E-10 Convergence criterion met
 Total energy in the final basis set = -2280.71482686
   12   -2280.7148389168      3.36E-10 Convergence criterion met
 Total energy in the final basis set = -2280.71483892
   11   -2280.7148429495      6.89E-10 Convergence criterion met
 Total energy in the final basis set = -2280.71484295
   11   -2280.7148490779      4.87E-10 Convergence criterion met
 Total energy in the final basis set = -2280.71484908

             Standard Nuclear Orientation (Angstroms)
    I     Atom           X                Y                Z
 ----------------------------------------------------------------
    1      C       0.0320806204    -0.4917130455     0.0727220258
    2      C       0.0234525920    -0.5093842675     1.4737284022
    3      H       0.9637053707    -0.5299583413     2.0140099883
    4      C      -1.1781970537    -0.5006496388     2.1618975724
    5      C      -2.3930949537    -0.4730611978     1.4425692603
    6      C      -2.3977784855    -0.4581870039     0.0622289524
    7      H      -3.3357308497    -0.4441835895    -0.4825641621
    8      C      -1.1918975755    -0.4636263021    -0.6391288661
    9      C      -1.5086105653    -0.5171569144     3.5915166863
   10      C      -0.7985547719    -0.5465065051     4.7616091364
   11      H       0.2839658487    -0.5631828626     4.7739445680
   12      C      -2.9153394530    -0.4985252817     3.6704467006
   13      C      -3.6450631823    -0.5074797657     4.8527586403
   14      C      -3.4996208234    -0.4711936950     2.3921444245
   15      C      -4.8650399361    -0.4506815539     2.2836266199
   16      H      -5.3628282176    -0.4287129864     1.3217787409
   17      C      -1.5115333895    -0.5559555731     5.9851058494
   18      H      -0.9475649211    -0.5793914584     6.9081950106
   19      C      -2.8851489668    -0.5372830580     6.0456290886
   20      H      -3.3831956376    -0.5458704627     7.0072637544
   21      C      -5.6329406611    -0.4585663034     3.4708949112
   22      H      -6.7121261749    -0.4422924415     3.3905862036
   23      C      -5.0551852151    -0.4861715701     4.7186809165
   24      H      -5.6832477172    -0.4914764593     5.6010531956
   25      B      -1.2080090536    -0.4532613125    -2.1945895580
   26      B       1.3800245550    -0.5012016088    -0.7103634240
   27      C       1.3725586911    -0.4515378277    -2.2675696189
   28      C       2.5783355086    -0.4572657977    -2.9813544857
   29      H       3.5185401045    -0.4881131374    -2.4419063830
   30      C       2.5658642692    -0.4319411899    -4.3647296788
   31      C       1.3319923157    -0.4061414038    -5.0507270541
   32      C       0.1380017347    -0.4089797254    -4.3601565211
   33      H      -0.8039810640    -0.3981768527    -4.8976466792
   34      C       0.1418322191    -0.4319506541    -2.9654627750
   35      C       1.5952579049    -0.3898373501    -6.4857753479
   36      C       0.8164243008    -0.3650413756    -7.6128903209
   37      H      -0.2652851529    -0.3482767257    -7.5606171028
   38      C       2.9930587740    -0.4100360380    -6.6261593500
   39      C       3.6471926748    -0.4091888762    -7.8536882910
   40      C       3.6341726266    -0.4364586957    -5.3726141161
   41      C       5.0031647047    -0.4643029504    -5.3532946416
   42      H       5.5613995050    -0.4883066556    -4.4260508585
   43      C       1.4546653253    -0.3615868502    -8.8750577873
   44      H       0.8407943985    -0.3417321057    -9.7662525514
   45      C       2.8231978662    -0.3834243502    -9.0052557272
   46      H       3.2705918233    -0.3812716208    -9.9917351379
   47      C       5.7007837048    -0.4638454766    -6.5857596511
   48      H       6.7823848261    -0.4863959714    -6.5642470217
   49      C       5.0600832971    -0.4371968480    -7.8018818471
   50      H       5.6378043817    -0.4388214143    -8.7180959932
   51      C       2.7428663636    -0.5786791480     0.0592801803
   52      C       3.5135533297     0.5664852517     0.2708807870
   53      C       4.7192627529     0.4912796020     0.9660894965
   54      H       5.2856235285     1.4020454776     1.1181297194
   55      C       5.1722038802    -0.7286275051     1.4495971707
   56      O       6.3239660314    -0.9007672646     2.1317200885
   57      C       4.4121282919    -1.8744143640     1.2329620190
   58      H       4.7765926909    -2.8240031691     1.6084537154
   59      C       3.2103056693    -1.8090427770     0.5500116004
   60      C       7.1219110477     0.2229254472     2.3872407283
   61      H       7.9861536572    -0.1293696814     2.9466191204
   62      H       6.6015289025     0.9747654081     2.9898755879
   63      H       7.4753628705     0.7006026375     1.4674026662
   64      C       3.0267060097     1.9170659927    -0.1893589656
   65      H       3.8828851156     2.5543176552    -0.4257839180
   66      H       2.4642935669     1.8212889455    -1.1221937509
   67      C       2.4492104512    -3.0852142803     0.2894585921
   68      H       2.6231345291    -3.7867920690     1.1090703530
   69      H       1.3728024511    -2.8934216888     0.2871155383
   70      C       2.1536513751     2.6112020462     0.8542251504
   71      H       1.2547082836     2.0329080495     1.0682178676
   72      H       1.8373672501     3.5952988915     0.5064492747
   73      H       2.6929477362     2.7432333514     1.7927436945
   74      C       2.8453474260    -3.7459983523    -1.0300019406
   75      H       2.6324007135    -3.0987931842    -1.8808506776
   76      H       3.9108213342    -3.9768312128    -1.0485893721
   77      H       2.2975469769    -4.6773911811    -1.1790709459
   78      C      -2.5668573572    -0.4909429089    -2.9888509392
   79      C      -3.0549310035    -1.7005380933    -3.4892179744
   80      C      -4.2487472017    -1.7486164841    -4.2063336235
   81      H      -4.5911271007    -2.7091018851    -4.5726618627
   82      C      -4.9759627537    -0.5901105957    -4.4351063257
   83      O      -6.1404022082    -0.5387132784    -5.1157649715
   84      C      -4.4976748510     0.6192665048    -3.9410750980
   85      H      -5.0681070262     1.5226814539    -4.1261072984
   86      C      -3.3115969517     0.6760381284    -3.2289041225
   87      C      -6.6688036466    -1.7324154204    -5.6282752816
   88      H      -7.5979054488    -1.4713128420    -6.1308111325
   89      H      -6.8928787511    -2.4604920187    -4.8415923764
   90      H      -6.0019119603    -2.2048733636    -6.3571218582
   91      C      -2.8046020152     2.0234767391    -2.7856408691
   92      H      -3.6487509219     2.6563327140    -2.5002550980
   93      H      -2.1893337752     1.9252844336    -1.8870215466
   94      C      -2.3464949219    -3.0030819418    -3.2144676845
   95      H      -1.2792565256    -2.8324922950    -3.0511663525
   96      H      -2.4097892552    -3.6483028727    -4.0950118901
   97      C      -1.9994155953     2.7196416717    -3.8811327073
   98      H      -1.1190454088     2.1380332104    -4.1548275407
   99      H      -2.5999338274     2.8539352105    -4.7813522754
  100      H      -1.6589489272     3.7025863302    -3.5539134870
  101      C      -2.9329165634    -3.7322961317    -2.0077885166
  102      H      -2.8488882276    -3.1268256901    -1.1050890428
  103      H      -3.9897615912    -3.9554917816    -2.1585610774
  104      H      -2.4136015489    -4.6741084895    -1.8271983959
 ----------------------------------------------------------------

   10   -2280.7148541275      8.33E-10 Convergence criterion met
 Total energy in the final basis set = -2280.71485413
 Final energy is   -2280.71485412748
 **  OPTIMIZATION CONVERGED  **

                    Orbital Energies (a.u.)
 --------------------------------------------------------------

 Alpha MOs
 -- Occupied --
-19.523 -19.522 -10.499 -10.498 -10.489 -10.488 -10.462 -10.462
-10.462 -10.462 -10.462 -10.461 -10.460 -10.460 -10.460 -10.460
-10.460 -10.460 -10.459 -10.459 -10.458 -10.458 -10.457 -10.457
-10.457 -10.457 -10.457 -10.456 -10.451 -10.450 -10.448 -10.448
-10.447 -10.447 -10.446 -10.445 -10.444 -10.443 -10.432 -10.432
-10.431 -10.431 -10.431 -10.430 -10.430 -10.430 -10.429 -10.429
-10.426 -10.426 -10.418 -10.418 -10.417 -10.416 -10.414 -10.412
 -6.945  -6.944  -1.180  -1.180  -1.013  -1.013  -0.960  -0.956
 -0.952  -0.951  -0.931  -0.931  -0.906  -0.897  -0.886  -0.885
 -0.864  -0.861  -0.851  -0.851  -0.845  -0.844  -0.821  -0.819
 -0.816  -0.811  -0.809  -0.801  -0.798  -0.798  -0.773  -0.772
 -0.732  -0.726  -0.724  -0.718  -0.709  -0.708  -0.700  -0.699
 -0.686  -0.678  -0.677  -0.662  -0.655  -0.645  -0.644  -0.643
 -0.628  -0.628  -0.592  -0.590  -0.590  -0.586  -0.583  -0.581
 -0.581  -0.573  -0.572  -0.560  -0.560  -0.542  -0.541  -0.534
 -0.533  -0.533  -0.525  -0.521  -0.510  -0.504  -0.502  -0.501
 -0.500  -0.498  -0.497  -0.493  -0.492  -0.487  -0.486  -0.482
 -0.481  -0.481  -0.480  -0.479  -0.478  -0.477  -0.475  -0.465
 -0.462  -0.457  -0.457  -0.453  -0.452  -0.449  -0.440  -0.438
 -0.433  -0.432  -0.429  -0.427  -0.426  -0.423  -0.422  -0.415
 -0.411  -0.410  -0.406  -0.404  -0.398  -0.398  -0.396  -0.393
 -0.392  -0.392  -0.390  -0.388  -0.388  -0.385  -0.380  -0.379
 -0.375  -0.368  -0.360  -0.359  -0.356  -0.353  -0.352  -0.347
 -0.336  -0.334  -0.314  -0.309  -0.293  -0.292  -0.277  -0.272
 -0.272  -0.259  -0.254  -0.252  -0.248  -0.245

          Ground-State Mulliken Net Atomic Charges

     Atom                 Charge (a.u.)
  ----------------------------------------
      1 C                    -0.152710
      2 C                    -0.396803
      3 H                     0.237085
      4 C                     0.113465
      5 C                     0.086058
      6 C                    -0.387925
      7 H                     0.235046
      8 C                    -0.151835
      9 C                     0.196958
     10 C                    -0.387649
     11 H                     0.220776
     12 C                    -0.063830
     13 C                     0.252981
     14 C                     0.195560
     15 C                    -0.377634
     16 H                     0.220930
     17 C                    -0.202744
     18 H                     0.225672
     19 C                    -0.337706
     20 H                     0.219695
     21 C                    -0.206214
     22 H                     0.226091
     23 C                    -0.332804
     24 H                     0.219310
     25 B                     0.660019
     26 B                     0.660311
     27 C                    -0.154690
     28 C                    -0.395435
     29 H                     0.237267
     30 C                     0.114454
     31 C                     0.085836
     32 C                    -0.387228
     33 H                     0.237846
     34 C                    -0.151490
     35 C                     0.195964
     36 C                    -0.379076
     37 H                     0.220344
     38 C                    -0.063822
     39 C                     0.252613
     40 C                     0.197821
     41 C                    -0.389078
     42 H                     0.220079
     43 C                    -0.205537
     44 H                     0.225857
     45 C                    -0.332516
     46 H                     0.219237
     47 C                    -0.202280
     48 H                     0.225345
     49 C                    -0.337796
     50 H                     0.219713
     51 C                    -0.223097
     52 C                     0.085906
     53 C                    -0.429699
     54 H                     0.221345
     55 C                     0.402598
     56 O                    -0.453369
     57 C                    -0.379875
     58 H                     0.219394
     59 C                     0.081240
     60 C                    -0.405849
     61 H                     0.238879
     62 H                     0.203289
     63 H                     0.202904
     64 C                    -0.552089
     65 H                     0.225404
     66 H                     0.255487
     67 C                    -0.553724
     68 H                     0.230316
     69 H                     0.254961
     70 C                    -0.644049
     71 H                     0.244753
     72 H                     0.217889
     73 H                     0.213850
     74 C                    -0.645081
     75 H                     0.243433
     76 H                     0.217673
     77 H                     0.216522
     78 C                    -0.231344
     79 C                     0.077952
     80 C                    -0.425616
     81 H                     0.221776
     82 C                     0.402397
     83 O                    -0.453882
     84 C                    -0.373852
     85 H                     0.219219
     86 C                     0.082711
     87 C                    -0.405852
     88 H                     0.239030
     89 H                     0.203459
     90 H                     0.203186
     91 C                    -0.550895
     92 H                     0.230357
     93 H                     0.251767
     94 C                    -0.553700
     95 H                     0.258148
     96 H                     0.227570
     97 C                    -0.643531
     98 H                     0.240403
     99 H                     0.217113
    100 H                     0.217675
    101 C                    -0.639137
    102 H                     0.240785
    103 H                     0.212195
    104 H                     0.217523
  ----------------------------------------
  Sum of atomic charges =    -0.000000

                    Cartesian Multipole Moments
 -----------------------------------------------------------------
    Charge (ESU x 10^10)
                -0.0000
    Dipole Moment (Debye)
         X       0.1279      Y      -0.0859      Z      -0.3007
       Tot       0.3379
    Quadrupole Moments (Debye-Ang)
        XX    -291.4999     XY      16.6013     YY    -337.5202
        XZ      -0.5323     YZ       9.6984     ZZ    -289.9518

 Total job time:  43512.54s(wall), 118444.18s(cpu)
        *  Thank you very much for using Q-Chem.  Have a nice day.  *
