 Q-Chem 5.0, Q-Chem, Inc., Pleasanton, CA (2017)
 Q-Chem 5.0.1 for Intel X86 EM64T Linux

User input:
--------------------------------------------------------------
$rem
threads 4
jobtype	opt
method PBEh-3c
basis def2-mSVP
mem_static	1024
mem_total	4000
sym_ignore	true
scf_convergence	9
solvent_method	pcm
$end

$molecule
read gsopt.mol
$end

$solvent
dielectric	2.03
$end

$pcm
theory iefpcm
$end
--------------------------------------------------------------

   17   -2280.7227698295      4.64E-10 Convergence criterion met
 Total energy in the final basis set = -2280.72276983
   15   -2280.7245178139      5.61E-10 Convergence criterion met
 Total energy in the final basis set = -2280.72451781
   15   -2280.7251198432      4.59E-10 Convergence criterion met
 Total energy in the final basis set = -2280.72511984
   15   -2280.7251430314      4.54E-10 Convergence criterion met
 Total energy in the final basis set = -2280.72514303
   14   -2280.7254008492      9.89E-10 Convergence criterion met
 Total energy in the final basis set = -2280.72540085
   14   -2280.7255607705      9.26E-10 Convergence criterion met
 Total energy in the final basis set = -2280.72556077
   14   -2280.7256919288      8.17E-10 Convergence criterion met
 Total energy in the final basis set = -2280.72569193
   14   -2280.7257088807      6.07E-10 Convergence criterion met
 Total energy in the final basis set = -2280.72570888
   14   -2280.7257235542      7.36E-10 Convergence criterion met
 Total energy in the final basis set = -2280.72572355
   14   -2280.7257330678      6.75E-10 Convergence criterion met
 Total energy in the final basis set = -2280.72573307
   14   -2280.7257411999      6.97E-10 Convergence criterion met
 Total energy in the final basis set = -2280.72574120

             Standard Nuclear Orientation (Angstroms)
    I     Atom           X                Y                Z
 ----------------------------------------------------------------
    1      C       0.0315068525    -0.4870719471     0.0742207132
    2      C       0.0230665435    -0.5036373791     1.4754065370
    3      H       0.9621796560    -0.5257136675     2.0174729426
    4      C      -1.1787162428    -0.4919778045     2.1640840710
    5      C      -2.3939408806    -0.4624963836     1.4447206588
    6      C      -2.3988462660    -0.4492835004     0.0639897069
    7      H      -3.3380343986    -0.4345748466    -0.4785171106
    8      C      -1.1929779063    -0.4579011124    -0.6376616331
    9      C      -1.5088002919    -0.5073195267     3.5938770554
   10      C      -0.7981081253    -0.5376213646     4.7641944431
   11      H       0.2844640366    -0.5561972000     4.7767106086
   12      C      -2.9157313778    -0.4859527269     3.6725315926
   13      C      -3.6456048373    -0.4930806421     4.8552051513
   14      C      -3.5005206200    -0.4578621581     2.3942299538
   15      C      -4.8663787152    -0.4344500497     2.2852846783
   16      H      -5.3643157076    -0.4118658929     1.3234308527
   17      C      -1.5115492199    -0.5453807727     5.9879592956
   18      H      -0.9474176091    -0.5696622722     6.9110100085
   19      C      -2.8857401655    -0.5240846357     6.0486186794
   20      H      -3.3840525082    -0.5315156078     7.0102031871
   21      C      -5.6341900773    -0.4403857086     3.4731259675
   22      H      -6.7134008931    -0.4219338387     3.3927651425
   23      C      -5.0561416481    -0.4688942201     4.7214469719
   24      H      -5.6839192017    -0.4727561037     5.6041214506
   25      B      -1.2094203642    -0.4505524310    -2.1933561717
   26      B       1.3796311954    -0.4999023595    -0.7089869419
   27      C       1.3719058249    -0.4469746797    -2.2663813901
   28      C       2.5776198771    -0.4513387978    -2.9805990435
   29      H       3.5190951541    -0.4836677783    -2.4435700083
   30      C       2.5648955020    -0.4230745550    -4.3642805773
   31      C       1.3305786226    -0.3963429899    -5.0501321710
   32      C       0.1364842510    -0.4015332088    -4.3590357406
   33      H      -0.8045009270    -0.3908407848    -4.8980926068
   34      C       0.1406464141    -0.4264419401    -2.9642299084
   35      C       1.5932654284    -0.3767142180    -6.4852561636
   36      C       0.8134667197    -0.3494782928    -7.6122815024
   37      H      -0.2683424989    -0.3332974730    -7.5599743936
   38      C       2.9913140078    -0.3960358986    -6.6255847454
   39      C       3.6453773342    -0.3920526885    -7.8535575633
   40      C       3.6331956083    -0.4250338393    -5.3722458070
   41      C       5.0027244740    -0.4524989869    -5.3528678083
   42      H       5.5613988758    -0.4784845484    -4.4258363693
   43      C       1.4519392856    -0.3428096807    -8.8748136881
   44      H       0.8377480164    -0.3211071908    -9.7658230178
   45      C       2.8210794467    -0.3638107382    -9.0053706077
   46      H       3.2686289280    -0.3592031377    -9.9918354794
   47      C       5.7000189104    -0.4490627904    -6.5860364753
   48      H       6.7816938365    -0.4713940734    -6.5646611900
   49      C       5.0587497823    -0.4197186690    -7.8025108055
   50      H       5.6359540025    -0.4190554062    -8.7191471576
   51      C       2.7427550491    -0.5840934938     0.0604136079
   52      C       3.5169797521     0.5582710323     0.2771148625
   53      C       4.7235758440     0.4768144639     0.9708081654
   54      H       5.2931964660     1.3849400047     1.1267658972
   55      C       5.1738752877    -0.7470298153     1.4482560485
   56      O       6.3261727032    -0.9245123309     2.1279221148
   57      C       4.4100347088    -1.8900827648     1.2270269556
   58      H       4.7708015380    -2.8436370417     1.5968032518
   59      C       3.2074132571    -1.8180761568     0.5447266500
   60      C       7.1304746108     0.1987639885     2.3845641594
   61      H       7.9957873730    -0.1583448886     2.9388627709
   62      H       6.6135349528     0.9484720537     2.9917938828
   63      H       7.4799649135     0.6770547700     1.4642086824
   64      C       3.0340469196     1.9125653469    -0.1764659591
   65      H       3.8918664949     2.5471306517    -0.4136080864
   66      H       2.4666803797     1.8224667447    -1.1068670303
   67      C       2.4435447223    -3.0915133370     0.2786984595
   68      H       2.6143703551    -3.7964741866     1.0959904885
   69      H       1.3676857449    -2.8968365109     0.2742092885
   70      C       2.1683259357     2.6067625121     0.8733360335
   71      H       1.2693366759     2.0298922034     1.0913900197
   72      H       1.8522939196     3.5918330185     0.5280498173
   73      H       2.7134653277     2.7367046599     1.8088785383
   74      C       2.8407505167    -3.7492129559    -1.0421485012
   75      H       2.6351083484    -3.0970105337    -1.8911107487
   76      H       3.9048742789    -3.9870505434    -1.0574144816
   77      H       2.2872684957    -4.6763744308    -1.1966846895
   78      C      -2.5680609060    -0.4948796880    -2.9884395620
   79      C      -3.0534297657    -1.7091271997    -3.4812080537
   80      C      -4.2452007764    -1.7647907163    -4.2016798755
   81      H      -4.5852863460    -2.7283079431    -4.5621266964
   82      C      -4.9736238015    -0.6085060417    -4.4410593066
   83      O      -6.1357913421    -0.5645192180    -5.1259993859
   84      C      -4.4982989208     0.6055598204    -3.9540945155
   85      H      -5.0684208552     1.5079923205    -4.1464859941
   86      C      -3.3135226136     0.6693147534    -3.2389112356
   87      C      -6.6608117084    -1.7658644710    -5.6337892151
   88      H      -7.5885043063    -1.5099015774    -6.1411610417
   89      H      -6.8851283236    -2.4876482171    -4.8421733191
   90      H      -5.9890980963    -2.2398041038    -6.3564048000
   91      C      -2.8102499458     2.0209193357    -2.8038363061
   92      H      -3.6553537356     2.6512826085    -2.5159764922
   93      H      -2.1883580741     1.9289806676    -1.9091055629
   94      C      -2.3432747699    -3.0084599869    -3.1955635007
   95      H      -1.2778657604    -2.8341260980    -3.0239389056
   96      H      -2.3980222335    -3.6578535792    -4.0734940504
   97      C      -2.0147574099     2.7166524954    -3.9068022065
   98      H      -1.1350410987     2.1361509095    -4.1853011178
   99      H      -2.6221993342     2.8480289184    -4.8029481993
  100      H      -1.6744186498     3.7009280791    -3.5834025528
  101      C      -2.9374479330    -3.7344988964    -1.9906063132
  102      H      -2.8703633429    -3.1215582665    -1.0913645670
  103      H      -3.9900606773    -3.9696356596    -2.1530457565
  104      H      -2.4105789563    -4.6695740974    -1.7973051287
 ----------------------------------------------------------------

   14   -2280.7257404146      5.58E-10 Convergence criterion met
 Total energy in the final basis set = -2280.72574041
 Final energy is   -2280.72574041460
 **  OPTIMIZATION CONVERGED  **

                    Orbital Energies (a.u.)
 --------------------------------------------------------------

 Alpha MOs
 -- Occupied --
-19.524 -19.524 -10.501 -10.501 -10.485 -10.485 -10.463 -10.463
-10.462 -10.462 -10.462 -10.462 -10.462 -10.462 -10.460 -10.460
-10.459 -10.459 -10.459 -10.459 -10.459 -10.459 -10.458 -10.457
-10.457 -10.457 -10.457 -10.457 -10.452 -10.452 -10.450 -10.449
-10.449 -10.449 -10.448 -10.448 -10.445 -10.445 -10.433 -10.432
-10.432 -10.432 -10.432 -10.432 -10.432 -10.431 -10.431 -10.431
-10.428 -10.428 -10.419 -10.418 -10.418 -10.417 -10.416 -10.414
 -6.947  -6.946  -1.181  -1.181  -1.014  -1.014  -0.961  -0.957
 -0.954  -0.953  -0.931  -0.931  -0.907  -0.899  -0.887  -0.886
 -0.865  -0.862  -0.852  -0.852  -0.845  -0.844  -0.822  -0.819
 -0.816  -0.811  -0.810  -0.802  -0.800  -0.799  -0.773  -0.772
 -0.732  -0.726  -0.724  -0.718  -0.710  -0.709  -0.701  -0.700
 -0.687  -0.679  -0.677  -0.663  -0.656  -0.645  -0.645  -0.644
 -0.629  -0.628  -0.592  -0.591  -0.589  -0.586  -0.583  -0.582
 -0.581  -0.573  -0.572  -0.561  -0.561  -0.542  -0.541  -0.535
 -0.532  -0.532  -0.525  -0.521  -0.511  -0.505  -0.502  -0.501
 -0.500  -0.499  -0.498  -0.493  -0.492  -0.488  -0.486  -0.483
 -0.482  -0.482  -0.481  -0.479  -0.479  -0.477  -0.475  -0.465
 -0.462  -0.458  -0.457  -0.454  -0.452  -0.450  -0.440  -0.438
 -0.434  -0.433  -0.430  -0.428  -0.427  -0.424  -0.423  -0.416
 -0.411  -0.411  -0.407  -0.405  -0.399  -0.398  -0.396  -0.393
 -0.393  -0.392  -0.391  -0.389  -0.388  -0.386  -0.381  -0.380
 -0.376  -0.369  -0.361  -0.360  -0.358  -0.355  -0.353  -0.348
 -0.338  -0.336  -0.316  -0.311  -0.293  -0.293  -0.279  -0.274
 -0.274  -0.260  -0.255  -0.253  -0.250  -0.247

          Ground-State Mulliken Net Atomic Charges

     Atom                 Charge (a.u.)
  ----------------------------------------
      1 C                    -0.152772
      2 C                    -0.398655
      3 H                     0.242790
      4 C                     0.106288
      5 C                     0.078996
      6 C                    -0.389645
      7 H                     0.240721
      8 C                    -0.152842
      9 C                     0.189704
     10 C                    -0.392807
     11 H                     0.234859
     12 C                    -0.064423
     13 C                     0.240535
     14 C                     0.188442
     15 C                    -0.383022
     16 H                     0.234991
     17 C                    -0.215643
     18 H                     0.239320
     19 C                    -0.344244
     20 H                     0.234511
     21 C                    -0.218894
     22 H                     0.239798
     23 C                    -0.339545
     24 H                     0.234096
     25 B                     0.658986
     26 B                     0.659113
     27 C                    -0.155037
     28 C                    -0.397133
     29 H                     0.242750
     30 C                     0.107220
     31 C                     0.078966
     32 C                    -0.389198
     33 H                     0.243522
     34 C                    -0.151984
     35 C                     0.188845
     36 C                    -0.384635
     37 H                     0.234392
     38 C                    -0.064409
     39 C                     0.240056
     40 C                     0.190547
     41 C                    -0.394269
     42 H                     0.234206
     43 C                    -0.218299
     44 H                     0.239624
     45 C                    -0.339262
     46 H                     0.234131
     47 C                    -0.215168
     48 H                     0.239036
     49 C                    -0.344245
     50 H                     0.234552
     51 C                    -0.222522
     52 C                     0.081079
     53 C                    -0.438407
     54 H                     0.234732
     55 C                     0.396961
     56 O                    -0.460897
     57 C                    -0.390932
     58 H                     0.227662
     59 C                     0.075988
     60 C                    -0.416468
     61 H                     0.246062
     62 H                     0.210731
     63 H                     0.210506
     64 C                    -0.553202
     65 H                     0.231339
     66 H                     0.256018
     67 C                    -0.555102
     68 H                     0.235514
     69 H                     0.255962
     70 C                    -0.650231
     71 H                     0.243377
     72 H                     0.222401
     73 H                     0.216424
     74 C                    -0.651106
     75 H                     0.242404
     76 H                     0.219671
     77 H                     0.221027
     78 C                    -0.230821
     79 C                     0.072624
     80 C                    -0.434245
     81 H                     0.235119
     82 C                     0.396651
     83 O                    -0.461494
     84 C                    -0.384588
     85 H                     0.227437
     86 C                     0.078054
     87 C                    -0.416389
     88 H                     0.246137
     89 H                     0.210987
     90 H                     0.210725
     91 C                    -0.552072
     92 H                     0.235424
     93 H                     0.252961
     94 C                    -0.554970
     95 H                     0.259155
     96 H                     0.233256
     97 C                    -0.649558
     98 H                     0.239394
     99 H                     0.219152
    100 H                     0.222110
    101 C                    -0.645608
    102 H                     0.239582
    103 H                     0.215159
    104 H                     0.221963
  ----------------------------------------
  Sum of atomic charges =    -0.000000

                    Cartesian Multipole Moments
 -----------------------------------------------------------------
    Charge (ESU x 10^10)
                -0.0000
    Dipole Moment (Debye)
         X       0.1579      Y      -0.0934      Z      -0.3395
       Tot       0.3860
    Quadrupole Moments (Debye-Ang)
        XX    -286.1197     XY      18.5163     YY    -336.0823
        XZ      -1.6674     YZ      10.7827     ZZ    -283.3521

 Total job time:  35119.99s(wall), 81116.00s(cpu)
        *  Thank you very much for using Q-Chem.  Have a nice day.  *
