 Q-Chem 5.0, Q-Chem, Inc., Pleasanton, CA (2017)
 Q-Chem 5.0.1 for Intel X86 EM64T Linux

User input:
--------------------------------------------------------------
$rem
threads 4
jobtype	opt
method PBEh-3c
basis def2-mSVP
mem_static	1024
mem_total	4000
sym_ignore	true
scf_convergence	9
solvent_method	pcm
$end

$molecule
read gsopt.mol
$end

$solvent
dielectric	4.33
$end

$pcm
theory iefpcm
$end
--------------------------------------------------------------

   17   -2280.7317483379      3.35E-10 Convergence criterion met
 Total energy in the final basis set = -2280.73174834
   15   -2280.7335418790      5.85E-10 Convergence criterion met
 Total energy in the final basis set = -2280.73354188
   15   -2280.7341426930      5.24E-10 Convergence criterion met
 Total energy in the final basis set = -2280.73414269
   15   -2280.7342673869      4.67E-10 Convergence criterion met
 Total energy in the final basis set = -2280.73426739
   15   -2280.7343878743      4.14E-10 Convergence criterion met
 Total energy in the final basis set = -2280.73438787
   15   -2280.7345795910      4.38E-10 Convergence criterion met
 Total energy in the final basis set = -2280.73457959
   15   -2280.7346763450      3.63E-10 Convergence criterion met
 Total energy in the final basis set = -2280.73467635
   14   -2280.7346424838      8.65E-10 Convergence criterion met
   15   -2280.7347133795      3.60E-10 Convergence criterion met
 Total energy in the final basis set = -2280.73471338
   14   -2280.7347271032      9.67E-10 Convergence criterion met
 Total energy in the final basis set = -2280.73472710
   14   -2280.7347371128      9.36E-10 Convergence criterion met
 Total energy in the final basis set = -2280.73473711
   14   -2280.7347424309      8.98E-10 Convergence criterion met
 Total energy in the final basis set = -2280.73474243
   14   -2280.7347492386      9.02E-10 Convergence criterion met
 Total energy in the final basis set = -2280.73474924
   14   -2280.7347526059      9.05E-10 Convergence criterion met
 Total energy in the final basis set = -2280.73475261

             Standard Nuclear Orientation (Angstroms)
    I     Atom           X                Y                Z
 ----------------------------------------------------------------
    1      C       0.0312575798    -0.4763401147     0.0725346824
    2      C       0.0232484224    -0.4917661140     1.4738543042
    3      H       0.9615230699    -0.5153041544     2.0171790361
    4      C      -1.1786174045    -0.4772775713     2.1630670636
    5      C      -2.3942584504    -0.4469442430     1.4437549177
    6      C      -2.3995108575    -0.4366114452     0.0626383468
    7      H      -3.3398544874    -0.4225667771    -0.4777512283
    8      C      -1.1937047038    -0.4477628646    -0.6394045893
    9      C      -1.5081306910    -0.4905579151     3.5930229513
   10      C      -0.7966970856    -0.5211062292     4.7634495598
   11      H       0.2859018822    -0.5410875891     4.7759102609
   12      C      -2.9152520525    -0.4672363242     3.6716598026
   13      C      -3.6450063664    -0.4728103053     4.8548299609
   14      C      -3.5007530614    -0.4397878615     2.3934196402
   15      C      -4.8670754513    -0.4152886674     2.2845204487
   16      H      -5.3654072524    -0.3933258272     1.3227967251
   17      C      -1.5102810786    -0.5271728859     5.9875564003
   18      H      -0.9458593304    -0.5516111425     6.9104557958
   19      C      -2.8849728426    -0.5040908105     6.0485563668
   20      H      -3.3834831123    -0.5103063579     7.0100722815
   21      C      -5.6345311087    -0.4193659010     3.4730215263
   22      H      -6.7137659435    -0.4000181729     3.3928497435
   23      C      -5.0559507927    -0.4473723204     4.7216986429
   24      H      -5.6831565521    -0.4499421728     5.6048174187
   25      B      -1.2104122324    -0.4471796559    -2.1955006255
   26      B       1.3795921629    -0.4927971852    -0.7107178187
   27      C       1.3717436731    -0.4384313312    -2.2682252452
   28      C       2.5775868210    -0.4382268604    -2.9824924342
   29      H       3.5201462446    -0.4665964767    -2.4472275054
   30      C       2.5648026488    -0.4096001979    -4.3665398130
   31      C       1.3300693996    -0.3890154599    -5.0525848636
   32      C       0.1357288598    -0.3987325462    -4.3612364789
   33      H      -0.8043415945    -0.3921127303    -4.9018557295
   34      C       0.1400079083    -0.4218991205    -2.9662725845
   35      C       1.5925093554    -0.3684206470    -6.4877687954
   36      C       0.8121377450    -0.3450762809    -7.6150767501
   37      H      -0.2698069643    -0.3346647855    -7.5630027463
   38      C       2.9909009413    -0.3803761464    -6.6276896341
   39      C       3.6451657331    -0.3723364726    -7.8559362061
   40      C       3.6333021608    -0.4059406312    -5.3742958447
   41      C       5.0034516493    -0.4252065511    -5.3545614505
   42      H       5.5624458342    -0.4474498158    -4.4275674443
   43      C       1.4510439444    -0.3347258577    -8.8777708934
   44      H       0.8367354926    -0.3161706957    -9.7688001863
   45      C       2.8208226554    -0.3482017590    -9.0082646980
   46      H       3.2688321426    -0.3408251094    -9.9945285185
   47      C       5.7006862172    -0.4175381609    -6.5881761389
   48      H       6.7824964463    -0.4332546390    -6.5666640404
   49      C       5.0590501110    -0.3917950760    -7.8051567913
   50      H       5.6358945304    -0.3874171484    -8.7220452766
   51      C       2.7422102452    -0.5871422668     0.0589370952
   52      C       3.5210763973     0.5499047324     0.2879488697
   53      C       4.7268915520     0.4565527767     0.9819652919
   54      H       5.3009173611     1.3602629669     1.1473436811
   55      C       5.1714398452    -0.7744382542     1.4477876340
   56      O       6.3219884388    -0.9628588460     2.1273218810
   57      C       4.4028771188    -1.9124389927     1.2141819980
   58      H       4.7575326594    -2.8721526933     1.5745032068
   59      C       3.2011482601    -1.8279339125     0.5305827821
   60      C       7.1322399918     0.1567127991     2.3961765531
   61      H       7.9951099673    -0.2095167895     2.9480637026
   62      H       6.6166043094     0.9017631889     3.0094318714
   63      H       7.4837659296     0.6412794099     1.4804221042
   64      C       3.0445530357     1.9105437806    -0.1531493649
   65      H       3.9049036730     2.5411405596    -0.3910430022
   66      H       2.4698438018     1.8303439553    -1.0800330313
   67      C       2.4323566602    -3.0953226193     0.2496068800
   68      H       2.5805555328    -3.8022447855     1.0695418888
   69      H       1.3584740826    -2.8914620901     0.2223800765
   70      C       2.1902879002     2.6029232464     0.9072241132
   71      H       1.2905438824     2.0284109563     1.1289186320
   72      H       1.8762839192     3.5911814664     0.5692936810
   73      H       2.7436358249     2.7257230998     1.8389431130
   74      C       2.8503584861    -3.7557092051    -1.0635327069
   75      H       2.6725537246    -3.0981734325    -1.9148614030
   76      H       3.9111110430    -4.0087946065    -1.0553059429
   77      H       2.2874464257    -4.6746467284    -1.2324437005
   78      C      -2.5693314551    -0.4999464840    -2.9900047076
   79      C      -3.0525263621    -1.7194621790    -3.4727166714
   80      C      -4.2454728823    -1.7843625678    -4.1909518703
   81      H      -4.5837099006    -2.7514523955    -4.5434937713
   82      C      -4.9775015805    -0.6314665138    -4.4379280986
   83      O      -6.1409103806    -0.5965752745    -5.1209694431
   84      C      -4.5043823937     0.5880475203    -3.9610483137
   85      H      -5.0761470156     1.4885536556    -4.1587088900
   86      C      -3.3179610778     0.6604905002    -3.2484040557
   87      C      -6.6625809156    -1.8054937269    -5.6217433772
   88      H      -7.5913308397    -1.5560822731    -6.1301618644
   89      H      -6.8829206523    -2.5219247415    -4.8247565997
   90      H      -5.9885051480    -2.2803782527    -6.3408884265
   91      C      -2.8178106683     2.0170999147    -2.8252071131
   92      H      -3.6631754804     2.6450864843    -2.5332324462
   93      H      -2.1863313948     1.9332139160    -1.9363720680
   94      C      -2.3385826979    -3.0147456559    -3.1781450142
   95      H      -1.2743508711    -2.8356670083    -3.0036335889
   96      H      -2.3889365608    -3.6694260329    -4.0522593190
   97      C      -2.0365463071     2.7106877499    -3.9397539937
   98      H      -1.1588116163     2.1307575200    -4.2259842084
   99      H      -2.6546855665     2.8375314680    -4.8293031372
  100      H      -1.6952307650     3.6969443359    -3.6234889221
  101      C      -2.9341930964    -3.7363754462    -1.9711742465
  102      H      -2.8772558669    -3.1161056114    -1.0760497934
  103      H      -3.9838226355    -3.9812495601    -2.1386516346
  104      H      -2.4009571610    -4.6658318593    -1.7684657466
 ----------------------------------------------------------------

   14   -2280.7347552103      9.06E-10 Convergence criterion met
 Total energy in the final basis set = -2280.73475521
 Final energy is   -2280.73475521027
 **  OPTIMIZATION CONVERGED  **

                    Orbital Energies (a.u.)
 --------------------------------------------------------------

 Alpha MOs
 -- Occupied --
-19.526 -19.526 -10.503 -10.503 -10.484 -10.483 -10.465 -10.465
-10.464 -10.464 -10.464 -10.464 -10.463 -10.463 -10.462 -10.462
-10.462 -10.462 -10.460 -10.460 -10.460 -10.460 -10.460 -10.459
-10.457 -10.457 -10.457 -10.457 -10.455 -10.454 -10.452 -10.452
-10.451 -10.451 -10.451 -10.451 -10.447 -10.447 -10.435 -10.435
-10.434 -10.434 -10.434 -10.434 -10.434 -10.433 -10.433 -10.433
-10.431 -10.431 -10.420 -10.420 -10.419 -10.419 -10.419 -10.417
 -6.949  -6.949  -1.182  -1.182  -1.016  -1.016  -0.963  -0.959
 -0.956  -0.955  -0.932  -0.932  -0.909  -0.901  -0.889  -0.888
 -0.866  -0.864  -0.854  -0.854  -0.846  -0.845  -0.824  -0.821
 -0.818  -0.813  -0.812  -0.805  -0.802  -0.801  -0.773  -0.772
 -0.734  -0.728  -0.726  -0.720  -0.712  -0.711  -0.703  -0.702
 -0.688  -0.680  -0.678  -0.665  -0.657  -0.647  -0.646  -0.645
 -0.631  -0.630  -0.593  -0.592  -0.590  -0.586  -0.583  -0.583
 -0.582  -0.574  -0.573  -0.563  -0.563  -0.544  -0.542  -0.536
 -0.532  -0.532  -0.526  -0.522  -0.513  -0.507  -0.503  -0.503
 -0.501  -0.500  -0.499  -0.495  -0.493  -0.489  -0.488  -0.486
 -0.485  -0.484  -0.483  -0.481  -0.480  -0.478  -0.476  -0.465
 -0.462  -0.459  -0.458  -0.456  -0.453  -0.452  -0.442  -0.439
 -0.436  -0.435  -0.433  -0.430  -0.429  -0.427  -0.424  -0.418
 -0.413  -0.412  -0.408  -0.406  -0.400  -0.400  -0.397  -0.395
 -0.395  -0.393  -0.392  -0.391  -0.390  -0.388  -0.383  -0.381
 -0.378  -0.372  -0.363  -0.362  -0.360  -0.357  -0.355  -0.351
 -0.340  -0.339  -0.319  -0.313  -0.295  -0.295  -0.282  -0.277
 -0.276  -0.262  -0.258  -0.256  -0.252  -0.250

          Ground-State Mulliken Net Atomic Charges

     Atom                 Charge (a.u.)
  ----------------------------------------
      1 C                    -0.153155
      2 C                    -0.399799
      3 H                     0.247309
      4 C                     0.099507
      5 C                     0.072569
      6 C                    -0.390531
      7 H                     0.245298
      8 C                    -0.153788
      9 C                     0.183087
     10 C                    -0.396258
     11 H                     0.245915
     12 C                    -0.065725
     13 C                     0.229078
     14 C                     0.181981
     15 C                    -0.386647
     16 H                     0.246026
     17 C                    -0.225819
     18 H                     0.250443
     19 C                    -0.348576
     20 H                     0.246924
     21 C                    -0.228871
     22 H                     0.250940
     23 C                    -0.344111
     24 H                     0.246510
     25 B                     0.657963
     26 B                     0.657680
     27 C                    -0.155018
     28 C                    -0.398261
     29 H                     0.247016
     30 C                     0.100439
     31 C                     0.072628
     32 C                    -0.390472
     33 H                     0.247940
     34 C                    -0.152561
     35 C                     0.182348
     36 C                    -0.388344
     37 H                     0.245436
     38 C                    -0.065703
     39 C                     0.228535
     40 C                     0.184016
     41 C                    -0.397759
     42 H                     0.245390
     43 C                    -0.228324
     44 H                     0.250849
     45 C                    -0.343770
     46 H                     0.246601
     47 C                    -0.225364
     48 H                     0.250225
     49 C                    -0.348543
     50 H                     0.247018
     51 C                    -0.222921
     52 C                     0.077129
     53 C                    -0.444326
     54 H                     0.246822
     55 C                     0.392140
     56 O                    -0.466551
     57 C                    -0.398936
     58 H                     0.234326
     59 C                     0.070493
     60 C                    -0.424311
     61 H                     0.250977
     62 H                     0.216616
     63 H                     0.216550
     64 C                    -0.553239
     65 H                     0.237134
     66 H                     0.254899
     67 C                    -0.556091
     68 H                     0.240350
     69 H                     0.256266
     70 C                    -0.654821
     71 H                     0.240800
     72 H                     0.226062
     73 H                     0.219275
     74 C                    -0.654923
     75 H                     0.239985
     76 H                     0.221422
     77 H                     0.224867
     78 C                    -0.230790
     79 C                     0.067399
     80 C                    -0.440349
     81 H                     0.247150
     82 C                     0.391957
     83 O                    -0.467056
     84 C                    -0.392612
     85 H                     0.234103
     86 C                     0.073767
     87 C                    -0.424270
     88 H                     0.251033
     89 H                     0.216907
     90 H                     0.216751
     91 C                    -0.552240
     92 H                     0.239866
     93 H                     0.252894
     94 C                    -0.555283
     95 H                     0.258571
     96 H                     0.238611
     97 C                    -0.653888
     98 H                     0.237430
     99 H                     0.221212
    100 H                     0.225764
    101 C                    -0.650750
    102 H                     0.237324
    103 H                     0.218678
    104 H                     0.225550
  ----------------------------------------
  Sum of atomic charges =    -0.000000

                    Cartesian Multipole Moments
 -----------------------------------------------------------------
    Charge (ESU x 10^10)
                -0.0000
    Dipole Moment (Debye)
         X       0.1932      Y      -0.0981      Z      -0.3658
       Tot       0.4251
    Quadrupole Moments (Debye-Ang)
        XX    -281.0271     XY      20.3148     YY    -334.7511
        XZ      -2.6221     YZ      11.7536     ZZ    -277.1388

 Total job time:  43205.16s(wall), 96408.73s(cpu)
        *  Thank you very much for using Q-Chem.  Have a nice day.  *
