 Q-Chem 5.0, Q-Chem, Inc., Pleasanton, CA (2017)
 Q-Chem 5.0.1 for Intel X86 EM64T Linux

User input:
--------------------------------------------------------------
$rem
threads 4
jobtype	opt
method PBEh-3c
basis def2-mSVP
mem_static	1024
mem_total	4000
sym_ignore	true
scf_convergence	9
solvent_method	pcm
$end

$molecule
read gsopt.mol
$end

$solvent
dielectric	2.38
$end

$pcm
theory iefpcm
$end
--------------------------------------------------------------

   17   -2280.7249282240      4.25E-10 Convergence criterion met
 Total energy in the final basis set = -2280.72492822
   15   -2280.7266854795      5.73E-10 Convergence criterion met
 Total energy in the final basis set = -2280.72668548
   15   -2280.7272884830      4.87E-10 Convergence criterion met
 Total energy in the final basis set = -2280.72728848
   15   -2280.7273477118      4.40E-10 Convergence criterion met
 Total energy in the final basis set = -2280.72734771
   14   -2280.7275492290      9.84E-10 Convergence criterion met
 Total energy in the final basis set = -2280.72754923
   15   -2280.7277320425      3.89E-10 Convergence criterion met
 Total energy in the final basis set = -2280.72773204
   14   -2280.7278524510      9.04E-10 Convergence criterion met
 Total energy in the final basis set = -2280.72785245
   14   -2280.7278651221      7.10E-10 Convergence criterion met
   14   -2280.7278747360      8.63E-10 Convergence criterion met
 Total energy in the final basis set = -2280.72787474
   14   -2280.7278942125      6.59E-10 Convergence criterion met
 Total energy in the final basis set = -2280.72789421
   14   -2280.7279010482      7.13E-10 Convergence criterion met
 Total energy in the final basis set = -2280.72790105
   14   -2280.7279030459      6.61E-10 Convergence criterion met
 Total energy in the final basis set = -2280.72790305
   14   -2280.7279065683      6.61E-10 Convergence criterion met
 Total energy in the final basis set = -2280.72790657
   14   -2280.7279131194      6.46E-10 Convergence criterion met
 Total energy in the final basis set = -2280.72791312

             Standard Nuclear Orientation (Angstroms)
    I     Atom           X                Y                Z
 ----------------------------------------------------------------
    1      C       0.0315413854    -0.4822553145     0.0728943414
    2      C       0.0233524351    -0.4992775636     1.4740936211
    3      H       0.9623190137    -0.5222162100     2.0163311742
    4      C      -1.1784176722    -0.4870543898     2.1629838094
    5      C      -2.3937700614    -0.4569150409     1.4437180534
    6      C      -2.3988810442    -0.4441502480     0.0628975079
    7      H      -3.3384069186    -0.4296617175    -0.4789927137
    8      C      -1.1930946411    -0.4532158113    -0.6389483388
    9      C      -1.5082794250    -0.5024929059     3.5928288309
   10      C      -0.7973329664    -0.5337981649     4.7630930470
   11      H       0.2852458897    -0.5529578487     4.7755098466
   12      C      -2.9152507851    -0.4805172128     3.6715720954
   13      C      -3.6450294368    -0.4880454545     4.8543920401
   14      C      -3.5002822770    -0.4519792278     2.3933355153
   15      C      -4.8662552467    -0.4283737600     2.2844816821
   16      H      -5.3643518643    -0.4055217478     1.3226982616
   17      C      -1.5107426799    -0.5418877005     5.9869731279
   18      H      -0.9464886336    -0.5669375617     6.9099380020
   19      C      -2.8850528945    -0.5200226956     6.0478063991
   20      H      -3.3833577063    -0.5277493716     7.0094010695
   21      C      -5.6339209390    -0.4344802160     3.4725154721
   22      H      -6.7131447367    -0.4158048472     3.3922557607
   23      C      -5.0556780878    -0.4635350575     4.7208738340
   24      H      -5.6832818758    -0.4676004781     5.6036815840
   25      B      -1.2096317305    -0.4483925902    -2.1947631083
   26      B       1.3796128324    -0.4960567829    -0.7104361585
   27      C       1.3718873194    -0.4438269048    -2.2678150887
   28      C       2.5776444156    -0.4470681364    -2.9820208894
   29      H       3.5193759120    -0.4775332715    -2.4453499323
   30      C       2.5648695829    -0.4196766017    -4.3658273791
   31      C       1.3304299668    -0.3953524830    -5.0517015132
   32      C       0.1362791472    -0.4013995159    -4.3605367178
   33      H      -0.8044925845    -0.3921061630    -4.8999747298
   34      C       0.1404869022    -0.4249269171    -2.9656963686
   35      C       1.5930054806    -0.3764344370    -6.4868668133
   36      C       0.8130057369    -0.3512424163    -7.6139410615
   37      H      -0.2688431671    -0.3367626858    -7.5616605094
   38      C       2.9911328912    -0.3936102166    -6.6271360087
   39      C       3.6451895436    -0.3893477388    -7.8552002413
   40      C       3.6331836986    -0.4206867515    -5.3737808300
   41      C       5.0028693879    -0.4457342845    -5.3543366115
   42      H       5.5616592216    -0.4699316724    -4.4273111607
   43      C       1.4515226019    -0.3443867055    -8.8765496393
   44      H       0.8372607306    -0.3242720602    -9.7675579007
   45      C       2.8208192449    -0.3632088857    -9.0071262941
   46      H       3.2684230239    -0.3584948303    -9.9935755761
   47      C       5.7001058435    -0.4419275059    -6.5876488109
   48      H       6.7818269276    -0.4622585632    -6.5662653035
   49      C       5.0586979019    -0.4145356165    -7.8042448205
   50      H       5.6357905831    -0.4134256034    -8.7209627665
   51      C       2.7425000807    -0.5831746099     0.0591743923
   52      C       3.5172765561     0.5575783330     0.2820230923
   53      C       4.7230232356     0.4719222223     0.9767778345
   54      H       5.2934206379     1.3787269397     1.1375133792
   55      C       5.1717628615    -0.7546737227     1.4491042768
   56      O       6.3228771596    -0.9360634167     2.1298146816
   57      C       4.4073732139    -1.8962334358     1.2214200055
   58      H       4.7664516465    -2.8520217830     1.5872621532
   59      C       3.2056553603    -1.8197868969     0.5377061667
   60      C       7.1280550771     0.1858639609     2.3932668545
   61      H       7.9918732294    -0.1745528740     2.9476928710
   62      H       6.6103042950     0.9330356781     3.0027343033
   63      H       7.4795963097     0.6677270497     1.4756872241
   64      C       3.0360059358     1.9140903649    -0.1666059526
   65      H       3.8944774748     2.5477734064    -0.4036348602
   66      H       2.4664931993     1.8275186117    -1.0960686456
   67      C       2.4409006636    -3.0911450404     0.2639596505
   68      H       2.5982244015    -3.7956026992     1.0843847714
   69      H       1.3658722626    -2.8926046131     0.2446353024
   70      C       2.1734716904     2.6067739451     0.8867992264
   71      H       1.2740072992     2.0305637315     1.1047779461
   72      H       1.8584065629     3.5932825395     0.5447562190
   73      H       2.7206200495     2.7333179378     1.8216480742
   74      C       2.8527549344    -3.7518997314    -1.0508848083
   75      H       2.6611988726    -3.0991301187    -1.9027623188
   76      H       3.9158273212    -3.9949340307    -1.0518423902
   77      H       2.2968918061    -4.6765160970    -1.2119846373
   78      C      -2.5685096007    -0.4952396391    -2.9894114549
   79      C      -3.0534672165    -1.7110456052    -3.4789216588
   80      C      -4.2462560728    -1.7694948525    -4.1976598229
   81      H      -4.5860271070    -2.7340984347    -4.5555153797
   82      C      -4.9761373882    -0.6143511152    -4.4385121369
   83      O      -6.1393802082    -0.5731599022    -5.1217231734
   84      C      -4.5012341378     0.6013365949    -3.9547964746
   85      H      -5.0722331662     1.5030705440    -4.1481331500
   86      C      -3.3153875959     0.6677671528    -3.2414219475
   87      C      -6.6634428764    -1.7766124655    -5.6273611788
   88      H      -7.5919152012    -1.5227031950    -6.1342703393
   89      H      -6.8858421445    -2.4971548450    -4.8342200667
   90      H      -5.9914964027    -2.2504820463    -6.3496462635
   91      C      -2.8130362728     2.0208897944    -2.8099309048
   92      H      -3.6583299324     2.6506543896    -2.5213819880
   93      H      -2.1887823970     1.9314931760    -1.9165808470
   94      C      -2.3419885418    -3.0092108297    -3.1912071074
   95      H      -1.2766895591    -2.8336171346    -3.0201967572
   96      H      -2.3966550334    -3.6603781149    -4.0677967480
   97      C      -2.0212338010     2.7157316453    -3.9161610744
   98      H      -1.1417027883     2.1356417821    -4.1961819617
   99      H      -2.6313254654     2.8451733003    -4.8108098048
  100      H      -1.6810778895     3.7008351581    -3.5950935912
  101      C      -2.9350083685    -3.7334484048    -1.9845821782
  102      H      -2.8681503812    -3.1186563297    -1.0865331529
  103      H      -3.9874441889    -3.9699428186    -2.1462671466
  104      H      -2.4071256535    -4.6676534798    -1.7898261650
 ----------------------------------------------------------------

   14   -2280.7279150811      6.60E-10 Convergence criterion met
 Total energy in the final basis set = -2280.72791508
 Final energy is   -2280.72791508113
 **  OPTIMIZATION CONVERGED  **

                    Orbital Energies (a.u.)
 --------------------------------------------------------------

 Alpha MOs
 -- Occupied --
-19.525 -19.524 -10.501 -10.501 -10.485 -10.485 -10.463 -10.463
-10.463 -10.463 -10.462 -10.462 -10.462 -10.462 -10.461 -10.460
-10.460 -10.460 -10.460 -10.460 -10.459 -10.459 -10.458 -10.458
-10.457 -10.457 -10.457 -10.457 -10.453 -10.452 -10.450 -10.450
-10.450 -10.449 -10.449 -10.448 -10.445 -10.445 -10.433 -10.433
-10.433 -10.433 -10.433 -10.432 -10.432 -10.432 -10.431 -10.431
-10.429 -10.429 -10.419 -10.419 -10.418 -10.417 -10.417 -10.415
 -6.947  -6.947  -1.181  -1.181  -1.015  -1.014  -0.961  -0.958
 -0.955  -0.953  -0.931  -0.931  -0.907  -0.899  -0.887  -0.886
 -0.865  -0.863  -0.852  -0.852  -0.845  -0.844  -0.822  -0.820
 -0.817  -0.811  -0.810  -0.803  -0.800  -0.800  -0.773  -0.772
 -0.733  -0.727  -0.725  -0.718  -0.711  -0.710  -0.701  -0.701
 -0.687  -0.679  -0.677  -0.663  -0.656  -0.645  -0.645  -0.644
 -0.629  -0.629  -0.592  -0.591  -0.589  -0.586  -0.583  -0.582
 -0.581  -0.573  -0.572  -0.562  -0.561  -0.543  -0.541  -0.535
 -0.532  -0.532  -0.525  -0.521  -0.512  -0.505  -0.502  -0.502
 -0.500  -0.499  -0.498  -0.494  -0.492  -0.488  -0.487  -0.484
 -0.483  -0.483  -0.481  -0.479  -0.479  -0.477  -0.475  -0.465
 -0.462  -0.458  -0.457  -0.454  -0.452  -0.451  -0.441  -0.438
 -0.434  -0.434  -0.431  -0.428  -0.428  -0.425  -0.423  -0.416
 -0.412  -0.411  -0.407  -0.405  -0.399  -0.399  -0.396  -0.394
 -0.393  -0.392  -0.391  -0.389  -0.389  -0.386  -0.381  -0.380
 -0.376  -0.370  -0.362  -0.361  -0.358  -0.355  -0.353  -0.349
 -0.338  -0.337  -0.316  -0.311  -0.294  -0.293  -0.279  -0.275
 -0.274  -0.261  -0.256  -0.254  -0.250  -0.248

          Ground-State Mulliken Net Atomic Charges

     Atom                 Charge (a.u.)
  ----------------------------------------
      1 C                    -0.152963
      2 C                    -0.398951
      3 H                     0.243892
      4 C                     0.104712
      5 C                     0.077498
      6 C                    -0.389840
      7 H                     0.241856
      8 C                    -0.152978
      9 C                     0.188157
     10 C                    -0.393701
     11 H                     0.237559
     12 C                    -0.064667
     13 C                     0.237871
     14 C                     0.186942
     15 C                    -0.383968
     16 H                     0.237691
     17 C                    -0.218141
     18 H                     0.242005
     19 C                    -0.345383
     20 H                     0.237479
     21 C                    -0.221336
     22 H                     0.242492
     23 C                    -0.340737
     24 H                     0.237062
     25 B                     0.658900
     26 B                     0.658844
     27 C                    -0.154822
     28 C                    -0.397562
     29 H                     0.243778
     30 C                     0.105579
     31 C                     0.077563
     32 C                    -0.389555
     33 H                     0.244546
     34 C                    -0.152079
     35 C                     0.187335
     36 C                    -0.385589
     37 H                     0.237082
     38 C                    -0.064635
     39 C                     0.237378
     40 C                     0.189024
     41 C                    -0.395203
     42 H                     0.236938
     43 C                    -0.220755
     44 H                     0.242342
     45 C                    -0.340436
     46 H                     0.237122
     47 C                    -0.217660
     48 H                     0.241744
     49 C                    -0.345371
     50 H                     0.237538
     51 C                    -0.222772
     52 C                     0.080404
     53 C                    -0.439910
     54 H                     0.237532
     55 C                     0.395722
     56 O                    -0.462360
     57 C                    -0.392768
     58 H                     0.229261
     59 C                     0.074572
     60 C                    -0.418378
     61 H                     0.247316
     62 H                     0.212141
     63 H                     0.211960
     64 C                    -0.553262
     65 H                     0.232672
     66 H                     0.255765
     67 C                    -0.555634
     68 H                     0.236720
     69 H                     0.256332
     70 C                    -0.651376
     71 H                     0.242882
     72 H                     0.223294
     73 H                     0.217012
     74 C                    -0.651789
     75 H                     0.241736
     76 H                     0.220012
     77 H                     0.221897
     78 C                    -0.230777
     79 C                     0.071388
     80 C                    -0.435794
     81 H                     0.237929
     82 C                     0.395530
     83 O                    -0.462882
     84 C                    -0.386598
     85 H                     0.229048
     86 C                     0.077056
     87 C                    -0.418356
     88 H                     0.247398
     89 H                     0.212429
     90 H                     0.212196
     91 C                    -0.552150
     92 H                     0.236452
     93 H                     0.253045
     94 C                    -0.555092
     95 H                     0.259118
     96 H                     0.234470
     97 C                    -0.650634
     98 H                     0.238990
     99 H                     0.219614
    100 H                     0.222993
    101 C                    -0.646914
    102 H                     0.239213
    103 H                     0.215921
    104 H                     0.222824
  ----------------------------------------
  Sum of atomic charges =    -0.000000

                    Cartesian Multipole Moments
 -----------------------------------------------------------------
    Charge (ESU x 10^10)
                -0.0000
    Dipole Moment (Debye)
         X       0.1652      Y      -0.0982      Z      -0.3427
       Tot       0.3929
    Quadrupole Moments (Debye-Ang)
        XX    -284.9780     XY      18.9382     YY    -335.7688
        XZ      -1.8599     YZ      11.0295     ZZ    -281.9120

 Total job time:  41171.23s(wall), 94734.90s(cpu)
        *  Thank you very much for using Q-Chem.  Have a nice day.  *
