 Q-Chem 5.1, Q-Chem, Inc., Pleasanton, CA (2018)
 Q-Chem 5.1.1 for Intel X86 EM64T Linux

User input:
--------------------------------------------------------------
$rem
threads 8
jobtype	opt
method PBEh-3c
basis def2-mSVP
mem_static	512
mem_total	6096
sym_ignore	true
$end

$molecule
read incoords.mol
$end

--------------------------------------------------------------

   15   -2049.9099336241      7.99e-09  Convergence criterion met
 Total energy in the final basis set =    -2049.9099336241
   12   -2049.9417301501      8.81e-09  Convergence criterion met
 Total energy in the final basis set =    -2049.9417301501
   12   -2049.9535764106      6.57e-09  Convergence criterion met
 Total energy in the final basis set =    -2049.9535764106
   12   -2049.9574717401      6.21e-09  Convergence criterion met
 Total energy in the final basis set =    -2049.9574717401
   11   -2049.9599370441      9.74e-09  Convergence criterion met
 Total energy in the final basis set =    -2049.9599370441
   11   -2049.9610666561      8.45e-09  Convergence criterion met
 Total energy in the final basis set =    -2049.9610666561
   11   -2049.9619062597      8.96e-09  Convergence criterion met
 Total energy in the final basis set =    -2049.9619062597
   11   -2049.9626562235      8.08e-09  Convergence criterion met
   11   -2049.9655938744      6.06e-09  Convergence criterion met
 Total energy in the final basis set =    -2049.9655938744
   11   -2049.9655207790      6.14e-09  Convergence criterion met
 Total energy in the final basis set =    -2049.9655207790
   10   -2049.9655396491      6.31e-09  Convergence criterion met
 Total energy in the final basis set =    -2049.9655396491
   10   -2049.9656094446      5.71e-09  Convergence criterion met
 Total energy in the final basis set =    -2049.9656094446
    9   -2049.9656130707      5.03e-09  Convergence criterion met
 Total energy in the final basis set =    -2049.9656130707
    9   -2049.9656192075      7.01e-09  Convergence criterion met
 Total energy in the final basis set =    -2049.9656192075

             Standard Nuclear Orientation (Angstroms)
    I     Atom           X                Y                Z
 ----------------------------------------------------------------
    1      C      -8.8978300440     4.2778545327     0.7711722677
    2      C      -9.0673009333     3.0794346324     1.4987982281
    3      B      -8.0736526385     1.9047784303     1.3235408897
    4      C      -6.8424286731     2.0557742859     0.3938377947
    5      C      -6.5920211774     3.2767427921    -0.2736682439
    6      B      -7.6753501385     4.4390233019    -0.2356176892
    7      C      -5.4571524105     3.4007793738    -1.0795743084
    8      C      -4.6279077947     2.3104402834    -1.2824416384
    9      C      -4.9106914241     1.0756630190    -0.6562848110
   10      C      -5.9880161134     0.9627998647     0.1960167239
   11      C      -9.8894629041     5.2618977713     0.8198461374
   12      C     -11.0319217307     5.0563110266     1.5720615815
   13      C     -11.1772001444     3.8776245612     2.3389886918
   14      C     -10.2037881433     2.9053145482     2.3033021977
   15      H      -9.7711371080     6.1711211982     0.2396405545
   16      C      -8.3489371489     0.5339885335     2.0418558668
   17      C      -7.1877236236     5.9173187572    -0.5705281370
   18      C      -9.1386863206    -0.4438234462     1.4305995753
   19      C      -9.3698827474    -1.6526169712     2.0790886039
   20      C      -8.8324546473    -1.9207008479     3.3294704041
   21      C      -8.0519028015    -0.9393990168     3.9307495778
   22      C      -7.8060938779     0.2756861382     3.3059612669
   23      C      -6.9608339618     1.3226999390     3.9743465330
   24      C      -9.7366610850    -0.1926021647     0.0733810922
   25      H      -9.9828038596    -2.4048760509     1.5931222426
   26      C      -9.0741714897    -3.2349767264     4.0141342851
   27      H      -7.6238133548    -1.1273473573     4.9102461743
   28      H      -6.0732599690     1.5564953975     3.3818829093
   29      H      -6.6222179935     1.0041865428     4.9597988770
   30      H      -7.5135789992     2.2562172028     4.1026041971
   31      H     -10.4079024116     0.6698527423     0.0871594189
   32      H     -10.3145620988    -1.0469780823    -0.2783093841
   33      H      -8.9622686402     0.0043940150    -0.6724044299
   34      H      -9.7673179272    -3.8593164433     3.4510970299
   35      H      -9.4925917201    -3.0961555473     5.0121196616
   36      H      -8.1469318119    -3.7989859577     4.1302602440
   37      C      -6.7076081379     6.6251678266     0.5485461509
   38      C      -6.2417757007     7.9290176737     0.4190582310
   39      C      -6.2241558150     8.5774444768    -0.8036864162
   40      C      -6.6591068323     7.8651839999    -1.9106115051
   41      C      -7.1244986103     6.5568213030    -1.8222116269
   42      C      -7.5133693762     5.8970228367    -3.1208880100
   43      C      -6.6532970314     5.9998175491     1.9189965497
   44      H      -5.8748978030     8.4449619212     1.3000868529
   45      C      -5.7274862465     9.9866530170    -0.9433372738
   46      H      -6.6244084950     8.3409715156    -2.8857714868
   47      H      -7.0254568635     4.9303047770    -3.2580819368
   48      H      -7.2104421963     6.5176849557    -3.9639791780
   49      H      -8.5873452261     5.7386720693    -3.2058205485
   50      H      -7.6311944566     5.9881356107     2.4023409999
   51      H      -5.9752650051     6.5540862546     2.5680879564
   52      H      -6.2984982437     4.9683669001     1.8928341698
   53      H      -5.4307334545    10.4043427008     0.0180694730
   54      H      -6.4946926471    10.6394971193    -1.3628331596
   55      H      -4.8623153999    10.0403447514    -1.6064766429
   56      C      -3.4720737856     2.1147827691    -2.1616641260
   57      C     -12.4990302344     3.8951510406     2.9677781118
   58      C     -13.2091862938     3.0354634113     3.7626724792
   59      C      -1.7294775828     2.3085485980    -3.7923432249
   60      C      -1.4019559226     0.9774395408    -3.6846431454
   61      C      -2.1162024433     0.1414811386    -2.7933531463
   62      C     -15.1436841954     4.5280324276     3.6694892227
   63      C     -14.5378223992     3.3766719349     4.1119482144
   64      H     -15.0977324739     2.6963240713     4.7404046917
   65      H      -0.6043594672     0.5671941475    -4.2918460087
   66      C      -3.1181314379     0.7561963581    -2.0511638823
   67      H      -6.2008645793     0.0215490178     0.6918257778
   68      C      -2.7745911029     2.8983012340    -3.0422110660
   69      H      -1.1778608634     2.9299172321    -4.4855922001
   70      H      -3.0074880279     3.9463479548    -3.1829862733
   71      H      -5.2456397684     4.3463896328    -1.5672397913
   72      C      -3.9600597590     0.0788775036    -1.1502878683
   73      C      -1.9563886689    -1.2520779416    -2.5961344231
   74      C      -2.7743454978    -1.9221155290    -1.7179461655
   75      C      -3.7925889157    -1.2699603922    -0.9820089000
   76      H      -2.6445838864    -2.9887014686    -1.5876725240
   77      H      -4.4232047966    -1.8463573802    -0.3162001525
   78      H     -10.3309969385     1.9807601772     2.8563010514
   79      H     -12.7871636031     2.1030297515     4.1167328173
   80      C     -13.1220360403     5.0786772051     2.5326597986
   81      C     -12.2767100622     5.8236906391     1.6884619786
   82      C     -12.7669874619     6.9749009018     1.1306238231
   83      C     -14.0944550972     7.3627891504     1.4313629041
   84      C     -14.9115141818     6.6245920548     2.2546057999
   85      C     -14.4336169116     5.4275802164     2.8384482449
   86      H     -14.4801585716     8.2707399912     0.9864180558
   87      H     -15.9252404985     6.9546637110     2.4465603904
   88      H     -12.1721945386     7.5830894740     0.4608519457
   89      H     -16.1687643796     4.7403834410     3.9477503435
   90      H      -1.1971088654    -1.7940879873    -3.1464872492
   91      O      -8.7496678529     3.7415896692    -1.7407372171
   92      H      -8.1934453759     3.0985983117    -2.1974006820
   93      H      -9.4272121096     3.2317904550    -1.2779845886
 ----------------------------------------------------------------

    8   -2049.9656193028      8.24e-09  Convergence criterion met
 Total energy in the final basis set =    -2049.9656193028
 Final energy is   -2049.96561930278
 **  OPTIMIZATION CONVERGED  **

                    Orbital Energies (a.u.)
 --------------------------------------------------------------

 Alpha MOs
 -- Occupied --
-19.557 -10.462 -10.462 -10.460 -10.460 -10.460 -10.460 -10.460
-10.459 -10.459 -10.458 -10.458 -10.458 -10.457 -10.457 -10.457
-10.457 -10.457 -10.456 -10.456 -10.455 -10.454 -10.453 -10.449
-10.448 -10.447 -10.446 -10.446 -10.446 -10.443 -10.443 -10.442
-10.441 -10.438 -10.437 -10.432 -10.431 -10.431 -10.430 -10.429
-10.429 -10.426 -10.425 -10.424 -10.423 -10.422 -10.421 -10.421
-10.416 -10.413 -10.413  -6.951  -6.940  -1.179  -1.012  -1.011
 -0.959  -0.955  -0.954  -0.946  -0.930  -0.929  -0.904  -0.896
 -0.870  -0.868  -0.861  -0.859  -0.849  -0.848  -0.844  -0.842
 -0.817  -0.810  -0.808  -0.800  -0.781  -0.773  -0.758  -0.756
 -0.752  -0.745  -0.730  -0.724  -0.722  -0.716  -0.685  -0.676
 -0.676  -0.664  -0.651  -0.648  -0.643  -0.639  -0.637  -0.632
 -0.629  -0.592  -0.590  -0.589  -0.585  -0.579  -0.572  -0.570
 -0.549  -0.545  -0.540  -0.539  -0.538  -0.525  -0.523  -0.520
 -0.510  -0.502  -0.499  -0.493  -0.492  -0.490  -0.486  -0.484
 -0.481  -0.480  -0.479  -0.478  -0.475  -0.475  -0.472  -0.468
 -0.468  -0.464  -0.463  -0.462  -0.458  -0.456  -0.455  -0.452
 -0.450  -0.446  -0.445  -0.439  -0.437  -0.435  -0.433  -0.428
 -0.423  -0.420  -0.419  -0.412  -0.405  -0.402  -0.396  -0.395
 -0.392  -0.390  -0.389  -0.387  -0.383  -0.380  -0.379  -0.374
 -0.371  -0.369  -0.357  -0.347  -0.344  -0.336  -0.329  -0.312
 -0.309  -0.292  -0.290  -0.272  -0.271  -0.263  -0.262  -0.258
 -0.254  -0.252  -0.250

          Ground-State Mulliken Net Atomic Charges

     Atom                 Charge (a.u.)
  ----------------------------------------
      1 C                    -0.245138
      2 C                    -0.136816
      3 B                     0.608367
      4 C                    -0.145739
      5 C                    -0.172390
      6 B                     0.773063
      7 C                    -0.407746
      8 C                     0.101314
      9 C                     0.088970
     10 C                    -0.390859
     11 C                    -0.397845
     12 C                     0.101422
     13 C                     0.086268
     14 C                    -0.385649
     15 H                     0.229388
     16 C                    -0.214966
     17 C                    -0.192024
     18 C                     0.061006
     19 C                    -0.345588
     20 C                     0.130732
     21 C                    -0.337353
     22 C                     0.074534
     23 C                    -0.760901
     24 C                    -0.762840
     25 H                     0.194851
     26 C                    -0.709552
     27 H                     0.197251
     28 H                     0.245887
     29 H                     0.233996
     30 H                     0.244474
     31 H                     0.234136
     32 H                     0.239843
     33 H                     0.230995
     34 H                     0.225181
     35 H                     0.229593
     36 H                     0.231077
     37 C                     0.038739
     38 C                    -0.334050
     39 C                     0.132616
     40 C                    -0.321563
     41 C                     0.042520
     42 C                    -0.722110
     43 C                    -0.759950
     44 H                     0.194727
     45 C                    -0.710509
     46 H                     0.191957
     47 H                     0.200629
     48 H                     0.226168
     49 H                     0.243225
     50 H                     0.250362
     51 H                     0.231952
     52 H                     0.255424
     53 H                     0.225858
     54 H                     0.228240
     55 H                     0.228164
     56 C                     0.186580
     57 C                     0.194220
     58 C                    -0.383953
     59 C                    -0.203554
     60 C                    -0.335246
     61 C                     0.248839
     62 C                    -0.335039
     63 C                    -0.204130
     64 H                     0.224244
     65 H                     0.219432
     66 C                    -0.062010
     67 H                     0.234523
     68 C                    -0.384668
     69 H                     0.225368
     70 H                     0.220026
     71 H                     0.229963
     72 C                     0.194186
     73 C                    -0.334811
     74 C                    -0.204424
     75 C                    -0.382892
     76 H                     0.224826
     77 H                     0.219020
     78 H                     0.234722
     79 H                     0.218664
     80 C                    -0.061388
     81 C                     0.186042
     82 C                    -0.383837
     83 C                    -0.203692
     84 C                    -0.335275
     85 C                     0.249297
     86 H                     0.224979
     87 H                     0.218931
     88 H                     0.219610
     89 H                     0.217843
     90 H                     0.218391
     91 O                    -0.726785
     92 H                     0.459545
     93 H                     0.473110
  ----------------------------------------
  Sum of atomic charges =    -0.000000

                    Cartesian Multipole Moments
 -----------------------------------------------------------------
    Charge (ESU x 10^10)
                -0.0000
    Dipole Moment (Debye)
         X      -1.3475      Y      -1.8966      Z      -2.2823
       Tot       3.2591
    Quadrupole Moments (Debye-Ang)
        XX    -259.4564     XY       4.5247     YY    -293.6455
        XZ       3.3781     YZ     -14.2177     ZZ    -291.6761

 Total job time:  20165.75s(wall), 156071.33s(cpu)
        *  Thank you very much for using Q-Chem.  Have a nice day.  *
