 Q-Chem 5.1, Q-Chem, Inc., Pleasanton, CA (2018)
 Q-Chem 5.1.1 for Intel X86 EM64T Linux

User input:
--------------------------------------------------------------
$rem
threads 8
jobtype	opt
method PBEh-3c
basis def2-mSVP
mem_static	512
mem_total	6096
sym_ignore	true
$end

$molecule
0 1
 O     0.000000     0.000000     0.000000
 H     0.000000     0.000000     1.008000
 H     0.950353     0.000000    -0.335996
$end

--------------------------------------------------------------

    9     -76.2524006178      3.91e-09  Convergence criterion met
 Total energy in the final basis set =      -76.2524006178
    8     -76.2578557050      7.04e-09  Convergence criterion met
 Total energy in the final basis set =      -76.2578557050
    7     -76.2579551028      5.10e-09  Convergence criterion met
 Total energy in the final basis set =      -76.2579551028

             Standard Nuclear Orientation (Angstroms)
    I     Atom           X                Y                Z
 ----------------------------------------------------------------
    1      O      -0.0004189568     0.0000000000    -0.0002922667
    2      H       0.0369174368     0.0000000000     0.9562300852
    3      H       0.9138545201     0.0000000000    -0.2839338185
 ----------------------------------------------------------------

    7     -76.2579558809      1.95e-09  Convergence criterion met
 Total energy in the final basis set =      -76.2579558809
 Final energy is   -76.2579558809246
 **  OPTIMIZATION CONVERGED  **

                    Orbital Energies (a.u.)
 --------------------------------------------------------------

 Alpha MOs
 -- Occupied --
-19.473  -1.104  -0.584  -0.434  -0.357

          Ground-State Mulliken Net Atomic Charges

     Atom                 Charge (a.u.)
  ----------------------------------------
      1 O                    -0.818104
      2 H                     0.409052
      3 H                     0.409052
  ----------------------------------------
  Sum of atomic charges =    -0.000000

                    Cartesian Multipole Moments
 -----------------------------------------------------------------
    Charge (ESU x 10^10)
                 0.0000
    Dipole Moment (Debye)
         X       1.7539      Y       0.0000      Z       1.2402
       Tot       2.1481
    Quadrupole Moments (Debye-Ang)
        XX      -4.9413     XY      -0.0000     YY      -7.1407
        XZ      -0.6297     YZ       0.0000     ZZ      -4.4961

 Total job time:  1.64s(wall), 12.33s(cpu)
        *  Thank you very much for using Q-Chem.  Have a nice day.  *
