 Q-Chem 5.1, Q-Chem, Inc., Pleasanton, CA (2018)
 Q-Chem 5.1.1 for Intel X86 EM64T Linux

User input:
--------------------------------------------------------------
$rem
threads 8
jobtype	opt
method PBEh-3c
basis def2-mSVP
mem_static	512
mem_total	6096
sym_ignore	true
$end

$molecule
read incoords.mol
$end

--------------------------------------------------------------

   15   -2106.0946765817      9.79e-09  Convergence criterion met
 Total energy in the final basis set =    -2106.0946765817
   13   -2106.1370852528      5.77e-09  Convergence criterion met
 Total energy in the final basis set =    -2106.1370852528
   12   -2106.1526925069      9.13e-09  Convergence criterion met
 Total energy in the final basis set =    -2106.1526925069
   13   -2106.1572764814      4.91e-09  Convergence criterion met
 Total energy in the final basis set =    -2106.1572764814
   12   -2106.1590905695      6.44e-09  Convergence criterion met
 Total energy in the final basis set =    -2106.1590905695
   12   -2106.1592671198      6.71e-09  Convergence criterion met
 Total energy in the final basis set =    -2106.1592671198
   12   -2106.1594338216      5.68e-09  Convergence criterion met
 Total energy in the final basis set =    -2106.1594338216
   11   -2106.1590401971      9.19e-09  Convergence criterion met
    9   -2106.1602397908      5.73e-09  Convergence criterion met
 Total energy in the final basis set =    -2106.1602397908
    9   -2106.1602379269      6.21e-09  Convergence criterion met
 Total energy in the final basis set =    -2106.1602379269
    9   -2106.1602532909      8.08e-09  Convergence criterion met
 Total energy in the final basis set =    -2106.1602532909
    9   -2106.1602492289      5.15e-09  Convergence criterion met
 Total energy in the final basis set =    -2106.1602492289
    8   -2106.1602530036      8.07e-09  Convergence criterion met
 Total energy in the final basis set =    -2106.1602530036
    7   -2106.1602497194      9.21e-09  Convergence criterion met
 Total energy in the final basis set =    -2106.1602497194

             Standard Nuclear Orientation (Angstroms)
    I     Atom           X                Y                Z
 ----------------------------------------------------------------
    1      C      -8.5789969689     3.9066630460     0.5564119992
    2      C      -8.6330681385     2.8233448953     1.4555701387
    3      B      -7.6363571965     1.6478213071     1.3194504382
    4      C      -6.4527107375     1.7279714677     0.3253718268
    5      C      -6.2970053320     2.8540747616    -0.5106578640
    6      B      -7.4886381665     3.9363086649    -0.6356529070
    7      C      -5.2066441658     2.9235777323    -1.3796506218
    8      C      -4.3284976925     1.8598844629    -1.4733274672
    9      C      -4.5205142612     0.7023477933    -0.6845573643
   10      C      -5.5529792560     0.6544014976     0.2248406523
   11      C      -9.5872927071     4.8736906193     0.5778757739
   12      C     -10.6348343162     4.7613503318     1.4705432707
   13      C     -10.6670355575     3.7011314506     2.4057866607
   14      C      -9.6763194057     2.7470128811     2.3943989496
   15      H      -9.5605576603     5.6944489707    -0.1321193464
   16      C      -7.8821118901     0.3257296653     2.1347107188
   17      C      -7.0049017447     5.4112821168    -1.0687013964
   18      C      -8.7014513649    -0.6749108076     1.6049884078
   19      C      -8.9211790625    -1.8455955053     2.3229049212
   20      C      -8.3421150520    -2.0521927103     3.5665076218
   21      C      -7.5304321026    -1.0498401908     4.0860065088
   22      C      -7.2952806231     0.1280948226     3.3895813524
   23      C      -6.4162164392     1.1988850568     3.9708276685
   24      C      -9.3436909392    -0.4854805157     0.2569715904
   25      H      -9.5579727689    -2.6160458843     1.8999670911
   26      C      -8.5785101258    -3.3216358542     4.3331012183
   27      H      -7.0683413287    -1.1917026077     5.0579036286
   28      H      -5.5546623544     1.3992603319     3.3299952916
   29      H      -6.0370128059     0.9240694983     4.9548024692
   30      H      -6.9572704908     2.1418726782     4.0771779666
   31      H     -10.0071988694     0.3835750204     0.2560645510
   32      H      -9.9349783829    -1.3542439618    -0.0334140847
   33      H      -8.5894444097    -0.3241427849    -0.5182940434
   34      H      -9.2272869454    -4.0054182710     3.7863997408
   35      H      -9.0482784393    -3.1251186150     5.2983625796
   36      H      -7.6431726282    -3.8471409702     4.5330104623
   37      C      -6.4014403382     6.1719178508    -0.0482791003
   38      C      -5.9276425006     7.4545735113    -0.3038116856
   39      C      -6.0191703541     8.0341945931    -1.5579626670
   40      C      -6.5891239000     7.2764809182    -2.5679557545
   41      C      -7.0727258518     5.9895795304    -2.3492488521
   42      C      -7.6325374603     5.2772136682    -3.5557132904
   43      C      -6.2276749900     5.6404022885     1.3496361581
   44      H      -5.4639314371     8.0109589392     0.5040843557
   45      C      -5.5216519824     9.4247328525    -1.8231487987
   46      H      -6.6523220937     7.6952770929    -3.5675241534
   47      H      -7.4699240865     5.8707073841    -4.4553230385
   48      H      -8.7089185128     5.1134575800    -3.4809646942
   49      H      -7.1568134670     4.3108480611    -3.7275362046
   50      H      -7.1580979519     5.6845603067     1.9175991767
   51      H      -5.4859899101     6.2261132891     1.8930551641
   52      H      -5.8949981895     4.6025236658     1.3650681588
   53      H      -4.8922057928     9.7867498206    -1.0108102026
   54      H      -6.3489839205    10.1288943414    -1.9328774616
   55      H      -4.9355788293     9.4719871628    -2.7419615274
   56      C      -3.2105538932     1.6035206482    -2.3859086546
   57      C     -11.9234601436     3.7861123383     3.1548697889
   58      C     -12.5290300461     3.0393119464     4.1293511555
   59      C      -1.5726039480     1.6639602955    -4.1313976409
   60      C      -1.1828396426     0.3681582938    -3.8882355169
   61      C      -1.8095240730    -0.3805442042    -2.8634508610
   62      C     -14.5174095262     4.4587609668     4.0045594393
   63      C     -13.8318841864     3.4006765116     4.5505954676
   64      H     -14.3068209960     2.8094298817     5.3228906764
   65      H      -0.4035189169    -0.0828510652    -4.4904544703
   66      C      -2.7918875754     0.2821920888    -2.1362158723
   67      H      -5.7032504240    -0.2275548429     0.8388169164
   68      C      -2.5990653023     2.3005333302    -3.3940437501
   69      H      -1.0875400238     2.2172416683    -4.9251154322
   70      H      -2.8864067071     3.3145381546    -3.6428091367
   71      H      -5.0760825444     3.7966836353    -2.0103201009
   72      C      -3.5548332711    -0.3119954838    -1.1131411637
   73      C      -1.5827116792    -1.7359532616    -2.5201650565
   74      C      -2.3238031031    -2.3256525420    -1.5247240499
   75      C      -3.3240913557    -1.6264885421    -0.8062583186
   76      H      -2.1462450247    -3.3657833671    -1.2832130858
   77      H      -3.8935583653    -2.1438708027    -0.0438266838
   78      H      -9.7239685303     1.9018858334     3.0731908761
   79      H     -12.0451854880     2.1775624248     4.5722780283
   80      C     -12.6259494821     4.8811177050     2.6167976740
   81      C     -11.8882962697     5.5129115879     1.5968451495
   82      C     -12.4697007392     6.5551281273     0.9242118758
   83      C     -13.7796159788     6.9506212347     1.2859900072
   84      C     -14.4911826371     6.3242228247     2.2816982355
   85      C     -13.9174060879     5.2407075448     2.9881468679
   86      H     -14.2377040635     7.7719347830     0.7501705678
   87      H     -15.4960805925     6.6536437989     2.5165825355
   88      H     -11.9601471009     7.0715843078     0.1201331953
   89      H     -15.5203430524     4.6869880838     4.3442013741
   90      H      -0.8349069312    -2.3125138242    -3.0508899633
   91      N      -8.3864312312     3.1820255066    -1.7489981900
   92      C      -9.0416268819     2.4517158311    -2.3314774029
   93      C      -9.8693485183     1.5195548774    -3.0592612579
   94      H      -9.2665607811     0.6781493574    -3.3967010360
   95      H     -10.3147445488     2.0099583505    -3.9230482014
   96      H     -10.6616884387     1.1513227473    -2.4094679715
 ----------------------------------------------------------------

    7   -2106.1602490688      6.65e-09  Convergence criterion met
 Total energy in the final basis set =    -2106.1602490688
 Final energy is   -2106.16024906884
 **  OPTIMIZATION CONVERGED  **

                    Orbital Energies (a.u.)
 --------------------------------------------------------------

 Alpha MOs
 -- Occupied --
-14.727 -10.566 -10.525 -10.456 -10.456 -10.455 -10.455 -10.454
-10.453 -10.453 -10.453 -10.452 -10.452 -10.452 -10.452 -10.451
-10.451 -10.451 -10.451 -10.451 -10.450 -10.450 -10.450 -10.444
-10.443 -10.443 -10.442 -10.442 -10.439 -10.439 -10.437 -10.437
-10.437 -10.433 -10.433 -10.432 -10.432 -10.431 -10.427 -10.427
-10.426 -10.426 -10.424 -10.424 -10.420 -10.419 -10.417 -10.415
-10.415 -10.414 -10.411 -10.409 -10.403  -6.932  -6.929  -1.098
 -1.004  -1.004  -0.953  -0.948  -0.947  -0.941  -0.924  -0.924
 -0.914  -0.896  -0.888  -0.867  -0.864  -0.858  -0.854  -0.841
 -0.840  -0.837  -0.837  -0.810  -0.803  -0.801  -0.792  -0.779
 -0.770  -0.755  -0.752  -0.749  -0.741  -0.725  -0.718  -0.716
 -0.709  -0.692  -0.678  -0.669  -0.652  -0.651  -0.639  -0.636
 -0.634  -0.631  -0.628  -0.622  -0.605  -0.584  -0.583  -0.580
 -0.574  -0.569  -0.568  -0.568  -0.562  -0.554  -0.543  -0.537
 -0.534  -0.533  -0.524  -0.518  -0.517  -0.503  -0.496  -0.491
 -0.488  -0.486  -0.484  -0.480  -0.477  -0.476  -0.475  -0.474
 -0.473  -0.472  -0.471  -0.468  -0.467  -0.466  -0.464  -0.459
 -0.458  -0.458  -0.457  -0.453  -0.449  -0.448  -0.445  -0.442
 -0.440  -0.432  -0.431  -0.429  -0.426  -0.422  -0.416  -0.415
 -0.409  -0.409  -0.399  -0.397  -0.389  -0.389  -0.385  -0.385
 -0.382  -0.381  -0.375  -0.375  -0.374  -0.368  -0.364  -0.360
 -0.348  -0.338  -0.335  -0.322  -0.319  -0.302  -0.301  -0.286
 -0.285  -0.268  -0.263  -0.258  -0.257  -0.251  -0.245  -0.244
 -0.241

          Ground-State Mulliken Net Atomic Charges

     Atom                 Charge (a.u.)
  ----------------------------------------
      1 C                    -0.201864
      2 C                    -0.140497
      3 B                     0.639044
      4 C                    -0.153366
      5 C                    -0.161855
      6 B                     0.807835
      7 C                    -0.403153
      8 C                     0.097958
      9 C                     0.088963
     10 C                    -0.396266
     11 C                    -0.412392
     12 C                     0.101599
     13 C                     0.084214
     14 C                    -0.391751
     15 H                     0.218019
     16 C                    -0.209642
     17 C                    -0.189183
     18 C                     0.063245
     19 C                    -0.347328
     20 C                     0.130125
     21 C                    -0.333787
     22 C                     0.076393
     23 C                    -0.757718
     24 C                    -0.776703
     25 H                     0.191153
     26 C                    -0.709636
     27 H                     0.195870
     28 H                     0.246699
     29 H                     0.231512
     30 H                     0.243994
     31 H                     0.236065
     32 H                     0.234317
     33 H                     0.231085
     34 H                     0.223525
     35 H                     0.229705
     36 H                     0.229618
     37 C                     0.046440
     38 C                    -0.328416
     39 C                     0.130940
     40 C                    -0.323678
     41 C                     0.039174
     42 C                    -0.743855
     43 C                    -0.757493
     44 H                     0.192803
     45 C                    -0.709408
     46 H                     0.187258
     47 H                     0.235031
     48 H                     0.210824
     49 H                     0.221226
     50 H                     0.248484
     51 H                     0.225673
     52 H                     0.261147
     53 H                     0.225541
     54 H                     0.228816
     55 H                     0.223561
     56 C                     0.182476
     57 C                     0.194766
     58 C                    -0.387285
     59 C                    -0.203710
     60 C                    -0.336608
     61 C                     0.247966
     62 C                    -0.337844
     63 C                    -0.203208
     64 H                     0.221701
     65 H                     0.216362
     66 C                    -0.063923
     67 H                     0.229221
     68 C                    -0.386157
     69 H                     0.222071
     70 H                     0.217996
     71 H                     0.219747
     72 C                     0.194210
     73 C                    -0.337394
     74 C                    -0.203571
     75 C                    -0.387123
     76 H                     0.221491
     77 H                     0.216600
     78 H                     0.228113
     79 H                     0.216897
     80 C                    -0.064411
     81 C                     0.183700
     82 C                    -0.387255
     83 C                    -0.203816
     84 C                    -0.336642
     85 C                     0.248523
     86 H                     0.221745
     87 H                     0.216372
     88 H                     0.215668
     89 H                     0.215148
     90 H                     0.215191
     91 N                    -0.163827
     92 C                     0.243928
     93 C                    -0.715533
     94 H                     0.300326
     95 H                     0.295040
     96 H                     0.303179
  ----------------------------------------
  Sum of atomic charges =    -0.000000

                    Cartesian Multipole Moments
 -----------------------------------------------------------------
    Charge (ESU x 10^10)
                -0.0000
    Dipole Moment (Debye)
         X      -4.1465      Y      -3.1929      Z      -5.3340
       Tot       7.4726
    Quadrupole Moments (Debye-Ang)
        XX    -234.2099     XY      11.4074     YY    -318.3035
        XZ      42.5743     YZ     -19.1588     ZZ    -289.1481

 Total job time:  17514.93s(wall), 135308.35s(cpu)
        *  Thank you very much for using Q-Chem.  Have a nice day.  *
