 Q-Chem 5.1, Q-Chem, Inc., Pleasanton, CA (2018)
 Q-Chem 5.1.1 for Intel X86 EM64T Linux

User input:
--------------------------------------------------------------
$rem
threads 8
jobtype	opt
method PBEh-3c
basis def2-mSVP
mem_static	512
mem_total	6096
sym_ignore	true
$end

$molecule
0 1
 C     0.000000     0.000000     0.000000
 H     0.000000     0.000000     1.089000
 H     1.026720     0.000000    -0.362996
 C    -0.683537    -1.183920    -0.483333
 H    -0.513360     0.889165    -0.363000
 N    -1.247410    -2.160577    -0.860042
$end

--------------------------------------------------------------

   11    -132.4501337457      5.75e-09  Convergence criterion met
 Total energy in the final basis set =     -132.4501337457
    9    -132.4538075540      9.23e-09  Convergence criterion met
 Total energy in the final basis set =     -132.4538075540
    9    -132.4538463698      4.36e-09  Convergence criterion met
 Total energy in the final basis set =     -132.4538463698
    9    -132.4538494551      1.55e-09  Convergence criterion met
 Total energy in the final basis set =     -132.4538494551
    9    -132.4538538230      5.04e-09  Convergence criterion met
 Total energy in the final basis set =     -132.4538538230
    8    -132.4538548622      5.93e-09  Convergence criterion met
 Total energy in the final basis set =     -132.4538548622

             Standard Nuclear Orientation (Angstroms)
    I     Atom           X                Y                Z
 ----------------------------------------------------------------
    1      C      -0.0067990435    -0.0117803381    -0.0034412793
    2      H       0.0041459015     0.0071757205     1.0848081338
    3      H       1.0212471438     0.0012620758    -0.3608527664
    4      C      -0.6920333405    -1.1986935238    -0.4808212330
    5      H      -0.5095514095     0.8850288298    -0.3608738569
    6      N      -1.2345962519    -2.1383247643    -0.8591899982
 ----------------------------------------------------------------

    8    -132.4538551289      6.01e-09  Convergence criterion met
 Total energy in the final basis set =     -132.4538551289
 Final energy is   -132.453855128856
 **  OPTIMIZATION CONVERGED  **

                    Orbital Energies (a.u.)
 --------------------------------------------------------------

 Alpha MOs
 -- Occupied --
-14.641 -10.491 -10.491  -1.012  -0.868  -0.584  -0.527  -0.527
 -0.426  -0.383  -0.383

          Ground-State Mulliken Net Atomic Charges

     Atom                 Charge (a.u.)
  ----------------------------------------
      1 C                    -0.725200
      2 H                     0.276556
      3 H                     0.276563
      4 C                     0.086977
      5 H                     0.276569
      6 N                    -0.191466
  ----------------------------------------
  Sum of atomic charges =     0.000000

                    Cartesian Multipole Moments
 -----------------------------------------------------------------
    Charge (ESU x 10^10)
                -0.0000
    Dipole Moment (Debye)
         X       1.8389      Y       3.1851      Z       1.2817
       Tot       3.8947
    Quadrupole Moments (Debye-Ang)
        XX     -20.0886     XY      -4.6706     YY     -25.4817
        XZ      -1.8771     YZ      -3.2513     ZZ     -18.6985

 Total job time:  4.12s(wall), 32.60s(cpu)
        *  Thank you very much for using Q-Chem.  Have a nice day.  *
