 Q-Chem 5.1, Q-Chem, Inc., Pleasanton, CA (2018)
 Q-Chem 5.1.1 for Intel X86 EM64T Linux

User input:
--------------------------------------------------------------
$rem
threads 8
jobtype	sp
method PBEh-3c
basis def2-mSVP
mem_static	1024
mem_total	8000
sym_ignore	true
unrestricted true
scf_convergence	9
solvent_method	pcm
$end

$molecule
read incoords.mol
$end

$solvent
dielectric	1.0001
$end

$pcm
theory iefpcm
$end
--------------------------------------------------------------

   17   -3317.7860720281      4.49e-10  Convergence criterion met
 Total energy in the final basis set =    -3317.7860720281
 Total job time:  5568.88s(wall), 41538.96s(cpu)
        *  Thank you very much for using Q-Chem.  Have a nice day.  *
 Q-Chem 5.1, Q-Chem, Inc., Pleasanton, CA (2018)
 Q-Chem 5.1.1 for Intel X86 EM64T Linux

User input:
--------------------------------------------------------------

$rem
threads 8
jobtype opt
method PBEh-3c
basis def2-mSVP
scf_guess	read
mem_static      1024
mem_total       8000
sym_ignore      true
unrestricted true
mom_start       1
scf_algorithm	diis
scf_max_cycles	250
solvent_method	pcm
geom_opt_tol_energy 25
geom_opt_tol_gradient 75
$end

$solvent
dielectric      1.0001
$end

$pcm
theory iefpcm
$end

$occupied
1 2 3 4 5 6 7 8 9 10 11 12 13 14 15 16 17 18 19 20 21 22 23 24 25 26 27 28 29 30 31 32 33 34 35 36 37 38 39 40 41 42 43 44 45 46 47 48 49 50 51 52 53 54 55 56 57 58 59 60 61 62 63 64 65 66 67 68 69 70 71 72 73 74 75 76 77 78 79 80 81 82 83 84 85 86 87 88 89 90 91 92 93 94 95 96 97 98 99 100 101 102 103 104 105 106 107 108 109 110 111 112 113 114 115 116 117 118 119 120 121 122 123 124 125 126 127 128 129 130 131 132 133 134 135 136 137 138 139 140 141 142 143 144 145 146 147 148 149 150 151 152 153 154 155 156 157 158 159 160 161 162 163 164 165 166 167 168 169 170 171 172 173 174 175 176 177 178 179 180 181 182 183 184 185 186 187 188 189 190 191 192 193 194 195 196 197 198 199 200 201 202 203 204 205 206 207 208 209 210 211 212 213 214 215 216 217 218 219 220 221 222 223 224 225 226 227 228 229 230 231 232 233 234 235 236 237 238 239 240 241 242 243 244 245 246 247 248 249 250 251 252 253 254 255 256 257 258 259 260 261 262 263 264 265 266 267 268 269 270 271 272 273 274 275 276 277 278 279 280 281 282 283 284 285 286 287 288 289 290 291  293
1 2 3 4 5 6 7 8 9 10 11 12 13 14 15 16 17 18 19 20 21 22 23 24 25 26 27 28 29 30 31 32 33 34 35 36 37 38 39 40 41 42 43 44 45 46 47 48 49 50 51 52 53 54 55 56 57 58 59 60 61 62 63 64 65 66 67 68 69 70 71 72 73 74 75 76 77 78 79 80 81 82 83 84 85 86 87 88 89 90 91 92 93 94 95 96 97 98 99 100 101 102 103 104 105 106 107 108 109 110 111 112 113 114 115 116 117 118 119 120 121 122 123 124 125 126 127 128 129 130 131 132 133 134 135 136 137 138 139 140 141 142 143 144 145 146 147 148 149 150 151 152 153 154 155 156 157 158 159 160 161 162 163 164 165 166 167 168 169 170 171 172 173 174 175 176 177 178 179 180 181 182 183 184 185 186 187 188 189 190 191 192 193 194 195 196 197 198 199 200 201 202 203 204 205 206 207 208 209 210 211 212 213 214 215 216 217 218 219 220 221 222 223 224 225 226 227 228 229 230 231 232 233 234 235 236 237 238 239 240 241 242 243 244 245 246 247 248 249 250 251 252 253 254 255 256 257 258 259 260 261 262 263 264 265 266 267 268 269 270 271 272 273 274 275 276 277 278 279 280 281 282 283 284 285 286 287 288 289 290 291 292
$end

$molecule
read
$end

--------------------------------------------------------------

   47   -3317.6977721986      7.41E-09 Convergence criterion met
 Total energy in the final basis set = -3317.69777220
   41   -3317.7005111175      6.93E-09 Convergence criterion met
 Total energy in the final basis set = -3317.70051112
   19   -3317.6991614088      6.23E-09 Convergence criterion met
 Total energy in the final basis set = -3317.69916141
   50   -3317.6974251418      4.31E-09 Convergence criterion met
 Total energy in the final basis set = -3317.69742514
   30   -3317.6988457482      7.14E-09 Convergence criterion met
 Total energy in the final basis set = -3317.69884575
   27   -3317.6941832782      9.48E-09 Convergence criterion met
 Total energy in the final basis set = -3317.69418328

                    Orbital Energies (a.u.)
 --------------------------------------------------------------

 Alpha MOs
 -- Occupied --
-14.811 -14.647 -10.581 -10.581 -10.547 -10.542 -10.542 -10.525
-10.523 -10.523 -10.522 -10.522 -10.522 -10.522 -10.518 -10.517
-10.494 -10.494 -10.476 -10.475 -10.469 -10.469 -10.465 -10.465
-10.451 -10.445 -10.438 -10.437 -10.437 -10.437 -10.436 -10.436
-10.435 -10.435 -10.435 -10.434 -10.434 -10.433 -10.433 -10.432
-10.431 -10.431 -10.431 -10.430 -10.430 -10.428 -10.427 -10.424
-10.424 -10.422 -10.421 -10.419 -10.419 -10.419 -10.419 -10.418
-10.418 -10.418 -10.418 -10.418 -10.417 -10.417 -10.417 -10.416
-10.416 -10.412 -10.412 -10.411 -10.411 -10.411 -10.410 -10.410
-10.410 -10.405 -10.404 -10.403 -10.402 -10.393 -10.392 -10.391
-10.391 -10.391 -10.385 -10.385  -6.887  -6.878  -1.181  -1.063
 -1.042  -1.041  -0.988  -0.984  -0.982  -0.982  -0.942  -0.935
 -0.931  -0.925  -0.923  -0.920  -0.915  -0.909  -0.905  -0.904
 -0.901  -0.892  -0.884  -0.871  -0.862  -0.861  -0.860  -0.837
 -0.836  -0.824  -0.824  -0.819  -0.819  -0.819  -0.819  -0.818
 -0.810  -0.795  -0.793  -0.792  -0.790  -0.784  -0.780  -0.779
 -0.773  -0.766  -0.758  -0.752  -0.748  -0.748  -0.726  -0.712
 -0.702  -0.699  -0.698  -0.697  -0.695  -0.694  -0.693  -0.687
 -0.685  -0.683  -0.676  -0.661  -0.658  -0.648  -0.645  -0.644
 -0.643  -0.632  -0.630  -0.617  -0.614  -0.610  -0.608  -0.608
 -0.602  -0.601  -0.596  -0.591  -0.590  -0.586  -0.576  -0.571
 -0.566  -0.565  -0.562  -0.559  -0.558  -0.558  -0.556  -0.552
 -0.552  -0.545  -0.544  -0.537  -0.526  -0.520  -0.519  -0.517
 -0.511  -0.511  -0.510  -0.508  -0.504  -0.501  -0.499  -0.499
 -0.499  -0.497  -0.496  -0.493  -0.487  -0.486  -0.483  -0.482
 -0.478  -0.476  -0.474  -0.473  -0.473  -0.470  -0.470  -0.463
 -0.462  -0.462  -0.460  -0.458  -0.457  -0.457  -0.455  -0.453
 -0.453  -0.452  -0.452  -0.452  -0.449  -0.445  -0.444  -0.443
 -0.441  -0.440  -0.435  -0.433  -0.430  -0.430  -0.425  -0.424
 -0.419  -0.414  -0.413  -0.410  -0.408  -0.407  -0.405  -0.404
 -0.399  -0.399  -0.396  -0.396  -0.394  -0.389  -0.387  -0.386
 -0.383  -0.382  -0.376  -0.375  -0.375  -0.369  -0.368  -0.367
 -0.365  -0.365  -0.363  -0.362  -0.360  -0.360  -0.359  -0.356
 -0.355  -0.348  -0.347  -0.342  -0.339  -0.338  -0.333  -0.330
 -0.315  -0.314  -0.302  -0.300  -0.289  -0.287  -0.282  -0.270
 -0.270  -0.268  -0.262  -0.259  -0.252  -0.246  -0.244  -0.235
 -0.225  -0.219  -0.191  -0.131

 Beta MOs
 -- Occupied --
-14.823 -14.647 -10.579 -10.579 -10.547 -10.545 -10.545 -10.526
-10.526 -10.525 -10.525 -10.524 -10.520 -10.520 -10.516 -10.515
-10.494 -10.494 -10.476 -10.476 -10.469 -10.469 -10.465 -10.465
-10.451 -10.445 -10.438 -10.437 -10.437 -10.436 -10.436 -10.436
-10.435 -10.435 -10.435 -10.434 -10.434 -10.434 -10.433 -10.432
-10.432 -10.430 -10.430 -10.429 -10.429 -10.429 -10.428 -10.424
-10.424 -10.421 -10.421 -10.419 -10.419 -10.419 -10.419 -10.418
-10.418 -10.418 -10.418 -10.418 -10.418 -10.417 -10.416 -10.415
-10.415 -10.412 -10.412 -10.411 -10.411 -10.411 -10.411 -10.410
-10.410 -10.405 -10.404 -10.403 -10.402 -10.393 -10.392 -10.391
-10.391 -10.391 -10.384 -10.384  -6.884  -6.875  -1.201  -1.063
 -1.048  -1.045  -0.991  -0.985  -0.982  -0.982  -0.942  -0.938
 -0.931  -0.924  -0.922  -0.920  -0.918  -0.912  -0.904  -0.903
 -0.901  -0.895  -0.884  -0.871  -0.866  -0.862  -0.860  -0.838
 -0.837  -0.825  -0.824  -0.820  -0.819  -0.818  -0.818  -0.817
 -0.810  -0.797  -0.796  -0.793  -0.790  -0.782  -0.779  -0.778
 -0.773  -0.765  -0.758  -0.754  -0.750  -0.748  -0.729  -0.713
 -0.700  -0.700  -0.698  -0.696  -0.696  -0.695  -0.694  -0.687
 -0.685  -0.683  -0.676  -0.660  -0.657  -0.650  -0.647  -0.643
 -0.642  -0.632  -0.628  -0.620  -0.614  -0.610  -0.609  -0.607
 -0.606  -0.603  -0.600  -0.598  -0.591  -0.590  -0.575  -0.572
 -0.565  -0.564  -0.563  -0.562  -0.559  -0.557  -0.556  -0.552
 -0.552  -0.545  -0.543  -0.536  -0.533  -0.526  -0.525  -0.518
 -0.511  -0.511  -0.511  -0.508  -0.504  -0.501  -0.500  -0.499
 -0.499  -0.498  -0.496  -0.493  -0.492  -0.486  -0.484  -0.481
 -0.481  -0.476  -0.474  -0.473  -0.473  -0.471  -0.469  -0.466
 -0.462  -0.461  -0.459  -0.458  -0.458  -0.457  -0.457  -0.455
 -0.454  -0.453  -0.452  -0.451  -0.450  -0.448  -0.445  -0.443
 -0.443  -0.439  -0.439  -0.434  -0.430  -0.430  -0.424  -0.423
 -0.419  -0.414  -0.413  -0.409  -0.408  -0.407  -0.405  -0.404
 -0.398  -0.398  -0.396  -0.393  -0.392  -0.389  -0.387  -0.385
 -0.383  -0.382  -0.381  -0.376  -0.375  -0.374  -0.369  -0.369
 -0.366  -0.365  -0.365  -0.362  -0.362  -0.361  -0.359  -0.359
 -0.355  -0.348  -0.347  -0.342  -0.337  -0.336  -0.329  -0.329
 -0.327  -0.313  -0.313  -0.302  -0.299  -0.287  -0.282  -0.278
 -0.270  -0.267  -0.266  -0.262  -0.259  -0.246  -0.244  -0.239
 -0.227  -0.222  -0.212  -0.191

          Ground-State Mulliken Net Atomic Charges

     Atom                 Charge (a.u.)    Spin (a.u.)
  --------------------------------------------------------
      1 N                    -0.605989      -0.473504
      2 C                     0.293015       0.104523
      3 C                     0.193241      -0.223645
      4 C                    -0.242116       0.037133
      5 C                    -0.295521       0.146760
      6 H                     0.237125      -0.007059
      7 C                    -0.186653      -0.240734
      8 H                     0.257872       0.012916
      9 C                    -0.234409       0.133584
     10 H                     0.264095      -0.006136
     11 C                    -0.260740      -0.187174
     12 H                     0.316260       0.010067
     13 C                     0.294075       0.105837
     14 C                    -0.261160      -0.187068
     15 H                     0.314455       0.010030
     16 C                    -0.234527       0.133574
     17 H                     0.263617      -0.006147
     18 C                    -0.187152      -0.240042
     19 H                     0.257590       0.012886
     20 C                    -0.295377       0.146619
     21 H                     0.237297      -0.007050
     22 C                     0.192150      -0.223675
     23 C                     0.137799       0.037949
     24 C                    -0.303629      -0.023572
     25 H                     0.220926       0.001213
     26 C                     0.049405       0.009002
     27 C                    -0.301667      -0.024419
     28 H                     0.219257       0.001357
     29 C                     0.047421       0.009913
     30 C                    -0.146618      -0.035294
     31 C                    -0.543723       0.001304
     32 H                     0.215004       0.000825
     33 H                     0.291266      -0.002351
     34 C                    -0.649146       0.000267
     35 C                    -0.542521       0.001196
     36 H                     0.215008       0.000810
     37 H                     0.288074      -0.001995
     38 C                    -0.649597       0.000155
     39 H                     0.273033      -0.000564
     40 H                     0.227131      -0.000176
     41 H                     0.190693      -0.000089
     42 B                     0.512454       0.362094
     43 C                    -0.130363       0.004796
     44 C                    -0.403219      -0.016375
     45 H                     0.177886      -0.000117
     46 C                     0.101962       0.036997
     47 C                     0.077997       0.092874
     48 C                    -0.393564      -0.057863
     49 H                     0.216296       0.002236
     50 C                    -0.138323       0.063850
     51 C                     0.197307      -0.042100
     52 C                    -0.393323       0.068099
     53 H                     0.177469      -0.004172
     54 C                    -0.078629       0.023425
     55 C                     0.253392      -0.038143
     56 C                     0.199686      -0.057253
     57 C                    -0.388485       0.086173
     58 H                     0.210566      -0.005122
     59 C                    -0.197416      -0.045588
     60 H                     0.200453       0.002318
     61 C                    -0.347003       0.064216
     62 H                     0.206575      -0.003825
     63 C                    -0.345293       0.079384
     64 H                     0.206417      -0.004796
     65 C                    -0.200455      -0.053185
     66 H                     0.215631       0.002614
     67 C                    -0.127400       0.002469
     68 C                    -0.408971      -0.014027
     69 H                     0.179558      -0.000233
     70 C                     0.103075       0.035671
     71 C                     0.077248       0.091547
     72 C                    -0.394618      -0.056598
     73 H                     0.215578       0.002165
     74 C                    -0.136409       0.062212
     75 C                     0.196338      -0.041595
     76 C                    -0.395640       0.066586
     77 H                     0.185570      -0.004050
     78 C                    -0.077156       0.022978
     79 C                     0.254073      -0.037325
     80 C                     0.198395      -0.056631
     81 C                    -0.387888       0.084657
     82 H                     0.211721      -0.005027
     83 C                    -0.198523      -0.044619
     84 H                     0.203485       0.002264
     85 C                    -0.347421       0.062615
     86 H                     0.206610      -0.003728
     87 C                    -0.345043       0.077979
     88 H                     0.206351      -0.004710
     89 C                    -0.201655      -0.052382
     90 H                     0.215658       0.002577
     91 B                     0.545545       0.275942
     92 C                    -0.189092      -0.026469
     93 C                     0.043448       0.004634
     94 C                    -0.281699      -0.001847
     95 H                     0.216868       0.000382
     96 C                     0.159327       0.002169
     97 C                    -0.279714      -0.001840
     98 H                     0.217739       0.000396
     99 C                     0.045578       0.004438
    100 N                    -0.709013      -0.000113
    101 C                     0.305920      -0.000015
    102 C                     0.140381       0.000051
    103 C                    -0.206972      -0.000010
    104 C                    -0.291005      -0.000057
    105 H                     0.200654       0.000005
    106 C                    -0.233555       0.000052
    107 H                     0.201774      -0.000004
    108 C                    -0.228934      -0.000056
    109 H                     0.207932       0.000004
    110 C                    -0.300209       0.000065
    111 H                     0.259790      -0.000013
    112 C                     0.310950      -0.000014
    113 C                     0.140160       0.000049
    114 C                    -0.291587      -0.000057
    115 H                     0.200615       0.000005
    116 C                    -0.233677       0.000052
    117 H                     0.202000      -0.000004
    118 C                    -0.230076      -0.000057
    119 H                     0.210049       0.000005
    120 C                    -0.304759       0.000066
    121 H                     0.259256      -0.000014
    122 C                    -0.539751       0.002850
    123 H                     0.219784       0.000349
    124 H                     0.261238      -0.001843
    125 C                    -0.647199      -0.000154
    126 C                    -0.542770       0.003194
    127 H                     0.220117       0.000373
    128 H                     0.263016      -0.002269
    129 C                    -0.647140      -0.000091
    130 H                     0.253520      -0.000329
    131 H                     0.210806      -0.000080
    132 H                     0.206019       0.000002
    133 H                     0.249148      -0.000247
    134 H                     0.209542       0.000002
    135 H                     0.210534      -0.000070
    136 H                     0.225951      -0.000186
    137 H                     0.273823      -0.000677
    138 H                     0.192221      -0.000123
    139 C                    -0.596636       0.000002
    140 C                    -0.598480       0.000002
    141 C                    -0.599340      -0.019164
    142 C                    -0.595616      -0.020300
    143 H                     0.246485       0.000784
    144 H                     0.236630      -0.000357
    145 H                     0.236826      -0.000302
    146 H                     0.247528       0.000683
    147 H                     0.236312      -0.000196
    148 H                     0.236435      -0.000159
    149 H                     0.234153      -0.000000
    150 H                     0.212245       0.000000
    151 H                     0.211763       0.000000
    152 H                     0.234642      -0.000000
    153 H                     0.212006       0.000000
    154 H                     0.212274       0.000000
  --------------------------------------------------------
  Sum of atomic charges =    -0.000000

                    Cartesian Multipole Moments
 -----------------------------------------------------------------
    Charge (ESU x 10^10)
                -0.0000
    Dipole Moment (Debye)
         X      18.7456      Y      17.3344      Z      20.5243
       Tot      32.7586
    Quadrupole Moments (Debye-Ang)
        XX    -563.8189     XY     -84.5573     YY    -608.1091
        XZ     -73.7006     YZ     -77.0424     ZZ    -563.3978

             Standard Nuclear Orientation (Angstroms)
    I     Atom           X                Y                Z
 ----------------------------------------------------------------
    1      N       0.0686069069    -1.1285662687     0.7017996923
    2      C      -0.6602524961    -0.4577687574     1.6588901659
    3      C      -0.0368057036     0.4529748647     2.5270901259
    4      C       1.4416065394     0.7668537862     2.4479263756
    5      C      -0.8356691573     1.0957712542     3.4620124627
    6      H      -0.3872861943     1.8096398423     4.1400484306
    7      C      -2.1987894798     0.8591569983     3.5498328074
    8      H      -2.7884874275     1.3802642521     4.2912465614
    9      C      -2.8014369652    -0.0445923074     2.6791887952
   10      H      -3.8639731934    -0.2393664377     2.7294922053
   11      C      -2.0436869592    -0.6973191451     1.7386929458
   12      H      -2.5165312000    -1.3930188167     1.0591884515
   13      C       1.4307438324    -0.9626010010     0.5614748145
   14      C       2.1105163879    -1.7107620869    -0.4167229123
   15      H       1.5699197136    -2.4101262860    -1.0386482307
   16      C       3.4643215906    -1.5521931895    -0.5862553508
   17      H       3.9741278660    -2.1331093185    -1.3424113155
   18      C       4.1632310659    -0.6502933230     0.2113143214
   19      H       5.2280699787    -0.5163586818     0.0812949756
   20      C       3.4898038667     0.0786684065     1.1788981837
   21      H       4.0473219985     0.7751476901     1.7919221083
   22      C       2.1249431423    -0.0563924399     1.3807938478
   23      C      -0.6331999885    -1.9959411052    -0.1907253616
   24      C      -0.9102114547    -3.2992965110     0.1848738370
   25      H      -0.5746050895    -3.6718909000     1.1479441495
   26      C      -1.6331267540    -4.1222067114    -0.6724678510
   27      C      -1.0520140078    -1.5004240547    -1.4145228259
   28      H      -0.8284655105    -0.4750708822    -1.6911474508
   29      C      -1.7746257912    -2.3137721858    -2.2750647046
   30      C      -2.0845328756    -3.6358344981    -1.9111644095
   31      C      -2.1882491784    -1.7638341545    -3.6139850793
   32      H      -2.2705739841    -0.6747292016    -3.5544480737
   33      H      -3.1820928167    -2.1314944598    -3.8776787897
   34      C      -1.2019517770    -2.1434679580    -4.7161410008
   35      C      -1.9770638095    -5.5161447221    -0.2155969476
   36      H      -1.1946790522    -5.8895698626     0.4520872139
   37      H      -1.9965188489    -6.1913514101    -1.0724726059
   38      C      -3.3271234532    -5.5678750422     0.4982442183
   39      H      -4.1311500690    -5.2591941994    -0.1693730138
   40      H      -3.5485210525    -6.5801435867     0.8370329512
   41      H      -3.3442866210    -4.9123241689     1.3715849601
   42      B      -2.9936322809    -4.5055709798    -2.8771580108
   43      C      -4.5036474876    -4.2208961466    -2.8794164171
   44      C      -5.0931321700    -3.2801201753    -1.9866488325
   45      H      -4.4629898674    -2.7531190297    -1.2759198784
   46      C      -6.4397353820    -3.0299685073    -2.0154937991
   47      C      -7.2597083532    -3.7133356770    -2.9581882908
   48      C      -6.7238237746    -4.6114279863    -3.8295694575
   49      H      -7.3610176411    -5.1180539576    -4.5531269715
   50      C      -5.3396060662    -4.8990207854    -3.8087984252
   51      C      -7.3176010764    -2.1466501629    -1.2321567726
   52      C      -7.1519547698    -1.2546504909    -0.2065786679
   53      H      -6.1767728974    -1.0578754480     0.2217645172
   54      C      -8.6270852034    -2.3339476977    -1.7282355168
   55      C      -9.7624546920    -1.6848752440    -1.2511927854
   56      C      -8.6436008590    -3.2736207613    -2.7764241749
   57      C      -9.8415006071    -3.5750104838    -3.3711308232
   58      H      -9.9114243788    -4.2905058411    -4.1838001429
   59      C      -8.2882524809    -0.5739417079     0.3013635872
   60      H      -8.1481247506     0.1305985279     1.1119414593
   61      C      -9.5561649424    -0.7705520479    -0.1900512117
   62      H     -10.3935272868    -0.2273967134     0.2321932466
   63      C     -10.9893751496    -2.0138626069    -1.8805536747
   64      H     -11.9103855192    -1.5446366603    -1.5548114620
   65      C     -11.0132793180    -2.9295275931    -2.9055717127
   66      H     -11.9598598145    -3.1689826860    -3.3754392386
   67      C      -2.3979731446    -5.5606157104    -3.8252310481
   68      C      -1.0108817502    -5.8822757103    -3.8238156893
   69      H      -0.3468327086    -5.3686765100    -3.1340394071
   70      C      -0.5077107047    -6.8340672688    -4.6709023965
   71      C      -1.3812820552    -7.4986231401    -5.5784734654
   72      C      -2.7094729935    -7.1981714360    -5.6192785281
   73      H      -3.3653245796    -7.7080461538    -6.3228503537
   74      C      -3.2575095739    -6.2304981823    -4.7439250850
   75      C       0.8391554706    -7.3925639576    -4.8717983447
   76      C       2.0755255362    -7.1955384564    -4.3191517155
   77      H       2.2366999098    -6.4678043689    -3.5337137566
   78      C       0.7252744579    -8.3689999345    -5.8858999493
   79      C       1.7723393289    -9.1500543349    -6.3646510504
   80      C      -0.6015343259    -8.4690511112    -6.3459463442
   81      C      -0.8936912588    -9.3819247989    -7.3243374090
   82      H      -1.9002310018    -9.5023526147    -7.7094705526
   83      C       3.1664147284    -7.9722310843    -4.7870185898
   84      H       4.1411657820    -7.8112109696    -4.3433607841
   85      C       3.0381263037    -8.9202321727    -5.7730765938
   86      H       3.9018274090    -9.4908035518    -6.0934671201
   87      C       1.4469225447   -10.0860601989    -7.3778869803
   88      H       2.2165326455   -10.7256357389    -7.7938487353
   89      C       0.1537808195   -10.1877634636    -7.8333517697
   90      H      -0.0760896091   -10.9111581694    -8.6063685198
   91      B      -4.7505076483    -5.9060890526    -4.7876175897
   92      C      -5.6960634135    -6.5495366330    -5.8621781997
   93      C      -6.1002262643    -5.7721774344    -6.9679838669
   94      C      -6.9910539874    -6.2806073616    -7.9013919808
   95      H      -7.3226886931    -5.6767387713    -8.7396913213
   96      C      -7.4741848609    -7.5730596270    -7.7466826905
   97      C      -7.0727577560    -8.3779564076    -6.6879286099
   98      H      -7.4673560276    -9.3849408855    -6.5946228256
   99      C      -6.1896423798    -7.8682351669    -5.7416739868
  100      N      -8.4410118016    -8.0597302471    -8.6674601656
  101      C      -9.8060008399    -7.9322186154    -8.3474932791
  102      C     -10.7710611924    -8.3741662536    -9.2488098398
  103      C     -10.4288427564    -8.9789764134   -10.6019141651
  104      C     -12.1144962204    -8.2366646391    -8.8847969227
  105      H     -12.8822265238    -8.5768620287    -9.5710737832
  106      C     -12.5098471207    -7.6822469095    -7.6821422674
  107      H     -13.5635206538    -7.5955023384    -7.4384950393
  108      C     -11.5426577815    -7.2401103967    -6.7999476269
  109      H     -11.8262377928    -6.7963613705    -5.8498193696
  110      C     -10.1991063669    -7.3617056145    -7.1261259023
  111      H      -9.4513662509    -7.0094167873    -6.4222210205
  112      C      -8.0008341520    -8.6267633300    -9.8732245774
  113      C      -8.9235446333    -9.0664489495   -10.8134872702
  114      C      -8.4250576592    -9.6072094303   -12.0043442846
  115      H      -9.1240083107    -9.9564622975   -12.7570665221
  116      C      -7.0716046753    -9.7131686457   -12.2653597167
  117      H      -6.7266650773   -10.1360864106   -13.2030176306
  118      C      -6.1693256844    -9.2724385510   -11.3157622974
  119      H      -5.1011525925    -9.3452090581   -11.4958115638
  120      C      -6.6294813933    -8.7310124225   -10.1229062719
  121      H      -5.9173516078    -8.3825678898    -9.3789018350
  122      C      -5.8208659077    -8.7419158128    -4.5712509043
  123      H      -5.7500411820    -9.7819273086    -4.9041649660
  124      H      -4.8307667250    -8.4630077407    -4.1984740021
  125      C      -6.8406757291    -8.6442075486    -3.4386220922
  126      C      -5.5465369008    -4.3909969477    -7.1806400214
  127      H      -6.2954754511    -3.7684642273    -7.6796743726
  128      H      -5.3407329709    -3.9248093254    -6.2124352495
  129      C      -4.2656220856    -4.4198671792    -8.0122136191
  130      H      -3.4937534587    -5.0101871486    -7.5164490376
  131      H      -4.4475237830    -4.8594028949    -8.9950936652
  132      H      -3.8702603822    -3.4137191248    -8.1623420113
  133      H      -6.9005077595    -7.6258131622    -3.0540443500
  134      H      -6.5695154981    -9.2962940688    -2.6066294965
  135      H      -7.8357248656    -8.9356733189    -3.7824138819
  136      H      -1.5164602318    -1.7265123963    -5.6732346671
  137      H      -1.1411048878    -3.2255093958    -4.8304021275
  138      H      -0.1990836381    -1.7701081580    -4.5002912630
  139      C     -11.0402611238    -8.0949773494   -11.7056120806
  140      C     -11.0320536424   -10.3889167708   -10.6887338545
  141      C       2.0995871363     0.4549616419     3.8037589653
  142      C       1.6028914739     2.2582418786     2.0999303595
  143      H       1.1398384769     2.4894337733     1.1407826912
  144      H       2.6547718780     2.5364099884     2.0429166759
  145      H       1.1366562940     2.8880405762     2.8568903314
  146      H       1.9830201228    -0.5973225386     4.0624494909
  147      H       1.6584308452     1.0486208845     4.6025993877
  148      H       3.1655583285     0.6810141556     3.7865006522
  149      H     -10.6261634415    -7.0867919482   -11.6730754243
  150      H     -12.1238640409    -8.0169560319   -11.5973724671
  151      H     -10.8447369149    -8.5048770439   -12.6978423941
  152      H     -10.6169732376   -11.0364947678    -9.9164066991
  153      H     -10.8354066104   -10.8519447063   -11.6577264964
  154      H     -12.1161214091   -10.3645465642   -10.5613100204
 ----------------------------------------------------------------
