 Q-Chem 5.1, Q-Chem, Inc., Pleasanton, CA (2018)
 Q-Chem 5.1.1 for Intel X86 EM64T Linux

User input:
--------------------------------------------------------------
$rem
threads 8
jobtype	sp
method PBEh-3c
basis def2-mSVP
mem_static	1024
mem_total	8000
sym_ignore	true
unrestricted true
scf_convergence	9
solvent_method	pcm
$end

$molecule
read incoords.mol
$end

$solvent
dielectric	8.93
$end

$pcm
theory iefpcm
$end
--------------------------------------------------------------

   16   -3317.8210297530      4.38e-10  Convergence criterion met
 Total energy in the final basis set =    -3317.8210297530
 Total job time:  4792.54s(wall), 36369.95s(cpu)
        *  Thank you very much for using Q-Chem.  Have a nice day.  *
 Q-Chem 5.1, Q-Chem, Inc., Pleasanton, CA (2018)
 Q-Chem 5.1.1 for Intel X86 EM64T Linux

User input:
--------------------------------------------------------------

$rem
threads 8
jobtype opt
method PBEh-3c
basis def2-mSVP
scf_guess	read
mem_static      1024
mem_total       8000
sym_ignore      true
unrestricted true
mom_start       1
scf_algorithm	diis
scf_max_cycles	250
solvent_method	pcm
geom_opt_tol_energy 25
geom_opt_tol_gradient 75
$end

$solvent
dielectric      8.93
$end
$pcm
theory iefpcm
$end

$occupied
1 2 3 4 5 6 7 8 9 10 11 12 13 14 15 16 17 18 19 20 21 22 23 24 25 26 27 28 29 30 31 32 33 34 35 36 37 38 39 40 41 42 43 44 45 46 47 48 49 50 51 52 53 54 55 56 57 58 59 60 61 62 63 64 65 66 67 68 69 70 71 72 73 74 75 76 77 78 79 80 81 82 83 84 85 86 87 88 89 90 91 92 93 94 95 96 97 98 99 100 101 102 103 104 105 106 107 108 109 110 111 112 113 114 115 116 117 118 119 120 121 122 123 124 125 126 127 128 129 130 131 132 133 134 135 136 137 138 139 140 141 142 143 144 145 146 147 148 149 150 151 152 153 154 155 156 157 158 159 160 161 162 163 164 165 166 167 168 169 170 171 172 173 174 175 176 177 178 179 180 181 182 183 184 185 186 187 188 189 190 191 192 193 194 195 196 197 198 199 200 201 202 203 204 205 206 207 208 209 210 211 212 213 214 215 216 217 218 219 220 221 222 223 224 225 226 227 228 229 230 231 232 233 234 235 236 237 238 239 240 241 242 243 244 245 246 247 248 249 250 251 252 253 254 255 256 257 258 259 260 261 262 263 264 265 266 267 268 269 270 271 272 273 274 275 276 277 278 279 280 281 282 283 284 285 286 287 288 289 290 291  293
1 2 3 4 5 6 7 8 9 10 11 12 13 14 15 16 17 18 19 20 21 22 23 24 25 26 27 28 29 30 31 32 33 34 35 36 37 38 39 40 41 42 43 44 45 46 47 48 49 50 51 52 53 54 55 56 57 58 59 60 61 62 63 64 65 66 67 68 69 70 71 72 73 74 75 76 77 78 79 80 81 82 83 84 85 86 87 88 89 90 91 92 93 94 95 96 97 98 99 100 101 102 103 104 105 106 107 108 109 110 111 112 113 114 115 116 117 118 119 120 121 122 123 124 125 126 127 128 129 130 131 132 133 134 135 136 137 138 139 140 141 142 143 144 145 146 147 148 149 150 151 152 153 154 155 156 157 158 159 160 161 162 163 164 165 166 167 168 169 170 171 172 173 174 175 176 177 178 179 180 181 182 183 184 185 186 187 188 189 190 191 192 193 194 195 196 197 198 199 200 201 202 203 204 205 206 207 208 209 210 211 212 213 214 215 216 217 218 219 220 221 222 223 224 225 226 227 228 229 230 231 232 233 234 235 236 237 238 239 240 241 242 243 244 245 246 247 248 249 250 251 252 253 254 255 256 257 258 259 260 261 262 263 264 265 266 267 268 269 270 271 272 273 274 275 276 277 278 279 280 281 282 283 284 285 286 287 288 289 290 291 292
$end

$molecule
read
$end

--------------------------------------------------------------

   20   -3317.7583093700      8.79E-09 Convergence criterion met
 Total energy in the final basis set = -3317.75830937
   17   -3317.7586821530      6.06E-09 Convergence criterion met
 Total energy in the final basis set = -3317.75868215
   17   -3317.7586280613      7.69E-09 Convergence criterion met
 Total energy in the final basis set = -3317.75862806
   19   -3317.7587380885      9.01E-09 Convergence criterion met
 Total energy in the final basis set = -3317.75873809
   17   -3317.7588305305      9.82E-09 Convergence criterion met
 Total energy in the final basis set = -3317.75883053
   17   -3317.7587956645      6.73E-09 Convergence criterion met
 Total energy in the final basis set = -3317.75879566
   17   -3317.7589551009      6.37E-09 Convergence criterion met
   17   -3317.7590043597      6.19E-09 Convergence criterion met
 Total energy in the final basis set = -3317.75900436
   17   -3317.7589889083      6.11E-09 Convergence criterion met
 Total energy in the final basis set = -3317.75898891
   17   -3317.7590112202      6.06E-09 Convergence criterion met
 Total energy in the final basis set = -3317.75901122
   17   -3317.7590278503      5.89E-09 Convergence criterion met
 Total energy in the final basis set = -3317.75902785
   17   -3317.7590313649      5.89E-09 Convergence criterion met
 Total energy in the final basis set = -3317.75903136
   17   -3317.7590353320      5.88E-09 Convergence criterion met
 Total energy in the final basis set = -3317.75903533

             Standard Nuclear Orientation (Angstroms)
    I     Atom           X                Y                Z
 ----------------------------------------------------------------
    1      N       0.1045302902    -1.1440600038     0.7338399804
    2      C      -0.6128949930    -0.3484390779     1.6190986321
    3      C       0.0430805455     0.5258978458     2.4920113473
    4      C       1.5538553265     0.6642408775     2.5284263625
    5      C      -0.7321499739     1.3011787872     3.3510797745
    6      H      -0.2379683679     1.9864740420     4.0292854323
    7      C      -2.1147651249     1.2354532281     3.3732413202
    8      H      -2.6809999784     1.8553698944     4.0555169359
    9      C      -2.7531269457     0.3621755262     2.5057497383
   10      H      -3.8330563972     0.2840125277     2.4970905141
   11      C      -2.0137734152    -0.4200301362     1.6397679222
   12      H      -2.5323881282    -1.0933204124     0.9719271846
   13      C       1.4922617848    -1.1186892543     0.6899504979
   14      C       2.1769441310    -1.9496978162    -0.2070671227
   15      H       1.6262931099    -2.6097083079    -0.8626703340
   16      C       3.5571480116    -1.9425176792    -0.2700333017
   17      H       4.0566026226    -2.5961666493    -0.9737640767
   18      C       4.2895020473    -1.1067494883     0.5595206765
   19      H       5.3703952671    -1.0908371227     0.5198798212
   20      C       3.6089331193    -0.2879076688     1.4441610002
   21      H       4.1822746925     0.3658299583     2.0901359545
   22      C       2.2198678398    -0.2707766834     1.5332434065
   23      C      -0.6116297148    -1.9747901377    -0.1744176486
   24      C      -0.9395075841    -3.2728422503     0.1759091608
   25      H      -0.6278864302    -3.6599435582     1.1404809260
   26      C      -1.6764290648    -4.0747248451    -0.6925057565
   27      C      -1.0057821435    -1.4748127524    -1.4045236287
   28      H      -0.7436078650    -0.4574079766    -1.6750147249
   29      C      -1.7470361320    -2.2588147781    -2.2818124886
   30      C      -2.1049408889    -3.5719186125    -1.9300776406
   31      C      -2.1227330943    -1.6801603359    -3.6224605905
   32      H      -2.1926422020    -0.5922620012    -3.5421886334
   33      H      -3.1144082966    -2.0284593767    -3.9206974188
   34      C      -1.1163141246    -2.0388825604    -4.7140110193
   35      C      -2.0521417169    -5.4648559485    -0.2452516139
   36      H      -1.2526113749    -5.8752701564     0.3772932545
   37      H      -2.1367086696    -6.1268501882    -1.1101149977
   38      C      -3.3618884587    -5.4912643070     0.5395322001
   39      H      -4.1911025630    -5.1332103479    -0.0705762489
   40      H      -3.6011640201    -6.5041909352     0.8663073497
   41      H      -3.3021427375    -4.8584103480     1.4263800105
   42      B      -3.0416348643    -4.4150898917    -2.8955722501
   43      C      -4.5601415153    -4.1560436889    -2.8627631610
   44      C      -5.1196242249    -3.2507076125    -1.9327378025
   45      H      -4.4663194060    -2.7341857467    -1.2370103601
   46      C      -6.4749376945    -3.0209892403    -1.8965216003
   47      C      -7.3306267442    -3.6992149089    -2.8157385789
   48      C      -6.8099980592    -4.5723195831    -3.7355747622
   49      H      -7.4714728560    -5.0754921786    -4.4341952780
   50      C      -5.4251717237    -4.8273366066    -3.7833806474
   51      C      -7.3169669003    -2.1701928668    -1.0529551062
   52      C      -7.1048379449    -1.2983402539    -0.0129978422
   53      H      -6.1123833566    -1.0999254215     0.3730805325
   54      C      -8.6450534863    -2.3679701645    -1.4902224858
   55      C      -9.7627143911    -1.7430056245    -0.9402615961
   56      C      -8.7054747170    -3.2864334025    -2.5576215111
   57      C      -9.9323932897    -3.5930197484    -3.0962330169
   58      H     -10.0383355065    -4.2925323095    -3.9170460012
   59      C      -8.2212561300    -0.6460272941     0.5638721274
   60      H      -8.0480615177     0.0405303732     1.3829162419
   61      C      -9.5121181905    -0.8493576905     0.1294641738
   62      H     -10.3337295951    -0.3272563186     0.6049248405
   63      C     -11.0166105079    -2.0752377289    -1.5126481901
   64      H     -11.9240876260    -1.6245586184    -1.1290002505
   65      C     -11.0822755725    -2.9720958229    -2.5557876881
   66      H     -12.0489748771    -3.2143232834    -2.9797470934
   67      C      -2.4776582276    -5.4472357120    -3.8869809949
   68      C      -1.0984134326    -5.7563988589    -3.9101305606
   69      H      -0.4331403914    -5.2561081302    -3.2131646533
   70      C      -0.5948225502    -6.6805199384    -4.7966656770
   71      C      -1.4753372551    -7.3283638636    -5.7151225491
   72      C      -2.8149956075    -7.0364164119    -5.7193214507
   73      H      -3.4735880848    -7.5343159909    -6.4244775671
   74      C      -3.3527721202    -6.1030669001    -4.8113674369
   75      C       0.7515316270    -7.2071691916    -5.0305933315
   76      C       1.9955628608    -7.0014463082    -4.4866667426
   77      H       2.1580064354    -6.2945605945    -3.6824902839
   78      C       0.6333856912    -8.1512506115    -6.0744279854
   79      C       1.6884727873    -8.8970969612    -6.5944791546
   80      C      -0.6984721049    -8.2587865266    -6.5226396208
   81      C      -0.9892467256    -9.1443548981    -7.5322431901
   82      H      -1.9965273310    -9.2681558990    -7.9119991858
   83      C       3.0884394811    -7.7423654218    -4.9972910367
   84      H       4.0670204468    -7.5767470732    -4.5647588886
   85      C       2.9589666604    -8.6622090010    -6.0141167210
   86      H       3.8267621293    -9.2057534729    -6.3675446434
   87      C       1.3646764516    -9.8036128691    -7.6354817239
   88      H       2.1399038746   -10.4141225546    -8.0826158509
   89      C       0.0648808030    -9.9116670908    -8.0786169786
   90      H      -0.1618661946   -10.6111823220    -8.8736687137
   91      B      -4.8543093386    -5.8029456237    -4.8166357461
   92      C      -5.8129653921    -6.4671460200    -5.8983180554
   93      C      -6.1699046365    -5.7463253977    -7.0515547409
   94      C      -7.0322389986    -6.2995848791    -7.9918674024
   95      H      -7.3194598418    -5.7404770468    -8.8755208736
   96      C      -7.5241543447    -7.5729006531    -7.7885808460
   97      C      -7.1831524329    -8.3142776598    -6.6761307112
   98      H      -7.5884570287    -9.3113732999    -6.5428805354
   99      C      -6.3308126219    -7.7613325865    -5.7253826862
  100      N      -8.4434880183    -8.1298548112    -8.7461152671
  101      C      -9.7904120382    -7.9575264434    -8.5279531853
  102      C     -10.7264343770    -8.4839543970    -9.4392770033
  103      C     -10.3178873975    -9.2422137430   -10.6767252131
  104      C     -12.0730512114    -8.2839068997    -9.1705585574
  105      H     -12.8168561770    -8.6767563561    -9.8507991259
  106      C     -12.4987253061    -7.5896515637    -8.0510547173
  107      H     -13.5568292354    -7.4524113196    -7.8743816888
  108      C     -11.5640024314    -7.0687547305    -7.1577244287
  109      H     -11.8878992089    -6.5232858932    -6.2824064741
  110      C     -10.2228019003    -7.2470942547    -7.3882255691
  111      H      -9.5061941941    -6.8390122243    -6.6917148656
  112      C      -7.9424713103    -8.8032626809    -9.8353410508
  113      C      -8.8186060568    -9.3495941872   -10.7936748832
  114      C      -8.2582555019   -10.0121851075   -11.8761625524
  115      H      -8.9033005279   -10.4428930830   -12.6303288442
  116      C      -6.8873844304   -10.1421358926   -12.0222960842
  117      H      -6.4864760484   -10.6646934248   -12.8800983078
  118      C      -6.0298046712    -9.6020887792   -11.0651813667
  119      H      -4.9587066404    -9.7016343119   -11.1711390375
  120      C      -6.5463062591    -8.9386261036    -9.9802913131
  121      H      -5.8772094536    -8.5216652832    -9.2426441576
  122      C      -6.0433560057    -8.5685181825    -4.4876656899
  123      H      -5.9505589845    -9.6247701356    -4.7534076489
  124      H      -5.0850884352    -8.2714854061    -4.0589058148
  125      C      -7.1442679146    -8.4050545297    -3.4416884094
  126      C      -5.5941888240    -4.3867443392    -7.3430301444
  127      H      -6.3430372235    -3.7716965777    -7.8487590262
  128      H      -5.3501814331    -3.8740123400    -6.4114066597
  129      C      -4.3439943957    -4.4833621493    -8.2146799594
  130      H      -3.5726763420    -5.0777196446    -7.7243645285
  131      H      -4.5671770090    -4.9510708597    -9.1752496665
  132      H      -3.9290445157    -3.4945213864    -8.4119524461
  133      H      -7.2328614496    -7.3645674518    -3.1280115624
  134      H      -6.9327408977    -9.0042049228    -2.5555889703
  135      H      -8.1121182499    -8.7197224062    -3.8359559336
  136      H      -1.4062251123    -1.6006525808    -5.6701620036
  137      H      -1.0535515579    -3.1186214314    -4.8489184623
  138      H      -0.1187872706    -1.6734778945    -4.4657394297
  139      C     -10.8680952119    -8.5070578274   -11.9171234334
  140      C     -10.9142793336   -10.6636487476   -10.6091131407
  141      C       2.0488979890     0.3239292159     3.9442706662
  142      C       1.9263832885     2.1137995957     2.1765193153
  143      H       1.5733263838     2.3712197980     1.1772487406
  144      H       3.0066125009     2.2606988789     2.2012330282
  145      H       1.4836207876     2.8175544128     2.8821571460
  146      H       1.7914452104    -0.7027548534     4.2072033160
  147      H       1.6021966040     0.9838016598     4.6885748442
  148      H       3.1310017523     0.4310470634     4.0240513581
  149      H     -10.4592323570    -7.4999005623   -11.9925763486
  150      H     -11.9540135091    -8.4332051449   -11.8706894691
  151      H     -10.6174697798    -9.0473014388   -12.8293160001
  152      H     -10.5404602022   -11.2066203238    -9.7416321115
  153      H     -10.6615417574   -11.2323282741   -11.5033377892
  154      H     -12.0009196207   -10.6231522922   -10.5444363863
 ----------------------------------------------------------------

   17   -3317.7590361456      6.07E-09 Convergence criterion met
 Total energy in the final basis set = -3317.75903615
 Final energy is   -3317.75903614559
 **  OPTIMIZATION CONVERGED  **

                    Orbital Energies (a.u.)
 --------------------------------------------------------------

 Alpha MOs
 -- Occupied --
-14.771 -14.673 -10.543 -10.543 -10.507 -10.502 -10.501 -10.501
-10.491 -10.491 -10.484 -10.484 -10.480 -10.480 -10.478 -10.478
-10.477 -10.477 -10.475 -10.465 -10.461 -10.460 -10.458 -10.458
-10.456 -10.456 -10.452 -10.452 -10.452 -10.451 -10.451 -10.451
-10.450 -10.450 -10.450 -10.450 -10.450 -10.449 -10.449 -10.449
-10.449 -10.449 -10.449 -10.449 -10.446 -10.446 -10.443 -10.443
-10.442 -10.442 -10.442 -10.442 -10.441 -10.441 -10.441 -10.440
-10.439 -10.439 -10.437 -10.437 -10.436 -10.435 -10.435 -10.435
-10.434 -10.434 -10.434 -10.434 -10.433 -10.433 -10.433 -10.425
-10.425 -10.421 -10.421 -10.421 -10.420 -10.417 -10.413 -10.413
-10.410 -10.409 -10.409 -10.409  -6.902  -6.902  -1.148  -1.084
 -1.003  -1.003  -1.003  -1.000  -0.970  -0.965  -0.956  -0.946
 -0.944  -0.943  -0.942  -0.922  -0.922  -0.906  -0.896  -0.894
 -0.892  -0.884  -0.882  -0.881  -0.875  -0.860  -0.852  -0.848
 -0.840  -0.839  -0.836  -0.836  -0.835  -0.833  -0.815  -0.813
 -0.812  -0.811  -0.804  -0.799  -0.798  -0.796  -0.789  -0.786
 -0.782  -0.765  -0.757  -0.754  -0.724  -0.722  -0.720  -0.718
 -0.715  -0.714  -0.706  -0.706  -0.706  -0.705  -0.703  -0.698
 -0.682  -0.676  -0.669  -0.667  -0.666  -0.658  -0.658  -0.650
 -0.649  -0.638  -0.634  -0.630  -0.629  -0.624  -0.613  -0.612
 -0.610  -0.585  -0.581  -0.580  -0.579  -0.576  -0.574  -0.570
 -0.569  -0.566  -0.561  -0.561  -0.561  -0.559  -0.549  -0.540
 -0.538  -0.533  -0.532  -0.528  -0.527  -0.523  -0.521  -0.521
 -0.517  -0.515  -0.513  -0.512  -0.509  -0.505  -0.501  -0.497
 -0.496  -0.494  -0.494  -0.492  -0.488  -0.484  -0.484  -0.483
 -0.482  -0.478  -0.477  -0.476  -0.476  -0.476  -0.475  -0.475
 -0.474  -0.474  -0.470  -0.468  -0.467  -0.465  -0.465  -0.464
 -0.462  -0.455  -0.455  -0.451  -0.451  -0.449  -0.445  -0.443
 -0.442  -0.441  -0.441  -0.434  -0.434  -0.433  -0.428  -0.426
 -0.425  -0.423  -0.421  -0.419  -0.419  -0.417  -0.415  -0.414
 -0.414  -0.410  -0.409  -0.403  -0.402  -0.401  -0.399  -0.397
 -0.394  -0.394  -0.391  -0.388  -0.387  -0.387  -0.386  -0.384
 -0.383  -0.382  -0.382  -0.377  -0.374  -0.372  -0.370  -0.368
 -0.362  -0.361  -0.358  -0.354  -0.345  -0.336  -0.328  -0.326
 -0.321  -0.317  -0.317  -0.310  -0.304  -0.297  -0.290  -0.289
 -0.288  -0.288  -0.287  -0.282  -0.273  -0.270  -0.268  -0.255
 -0.245  -0.242  -0.220  -0.151

 Beta MOs
 -- Occupied --
-14.783 -14.673 -10.541 -10.541 -10.507 -10.504 -10.504 -10.502
-10.491 -10.491 -10.486 -10.486 -10.484 -10.484 -10.476 -10.476
-10.475 -10.475 -10.475 -10.465 -10.460 -10.460 -10.459 -10.458
-10.457 -10.457 -10.453 -10.453 -10.452 -10.451 -10.451 -10.451
-10.451 -10.450 -10.450 -10.450 -10.449 -10.449 -10.449 -10.449
-10.449 -10.449 -10.448 -10.448 -10.447 -10.447 -10.443 -10.443
-10.442 -10.442 -10.441 -10.441 -10.441 -10.441 -10.440 -10.440
-10.439 -10.438 -10.437 -10.437 -10.436 -10.436 -10.435 -10.435
-10.434 -10.434 -10.434 -10.434 -10.433 -10.433 -10.433 -10.425
-10.425 -10.421 -10.421 -10.421 -10.420 -10.417 -10.413 -10.413
-10.409 -10.409 -10.408 -10.408  -6.900  -6.900  -1.167  -1.084
 -1.008  -1.004  -1.002  -1.002  -0.972  -0.965  -0.956  -0.947
 -0.945  -0.942  -0.942  -0.922  -0.921  -0.906  -0.898  -0.896
 -0.892  -0.885  -0.882  -0.881  -0.878  -0.860  -0.855  -0.848
 -0.840  -0.839  -0.838  -0.835  -0.835  -0.833  -0.815  -0.814
 -0.813  -0.812  -0.802  -0.798  -0.797  -0.795  -0.791  -0.785
 -0.782  -0.765  -0.759  -0.759  -0.724  -0.723  -0.720  -0.717
 -0.713  -0.713  -0.708  -0.705  -0.705  -0.705  -0.703  -0.698
 -0.682  -0.675  -0.669  -0.667  -0.665  -0.660  -0.656  -0.653
 -0.648  -0.641  -0.634  -0.630  -0.629  -0.623  -0.613  -0.612
 -0.612  -0.583  -0.582  -0.580  -0.580  -0.579  -0.577  -0.574
 -0.569  -0.568  -0.562  -0.561  -0.560  -0.558  -0.548  -0.540
 -0.538  -0.537  -0.533  -0.533  -0.527  -0.527  -0.522  -0.521
 -0.517  -0.516  -0.513  -0.512  -0.509  -0.504  -0.501  -0.499
 -0.496  -0.494  -0.494  -0.493  -0.491  -0.487  -0.484  -0.483
 -0.483  -0.481  -0.478  -0.477  -0.476  -0.476  -0.475  -0.474
 -0.474  -0.473  -0.470  -0.469  -0.468  -0.466  -0.465  -0.464
 -0.462  -0.456  -0.456  -0.451  -0.451  -0.449  -0.449  -0.445
 -0.442  -0.441  -0.441  -0.435  -0.434  -0.434  -0.429  -0.428
 -0.426  -0.424  -0.423  -0.419  -0.419  -0.416  -0.414  -0.414
 -0.413  -0.411  -0.411  -0.409  -0.402  -0.402  -0.400  -0.399
 -0.394  -0.393  -0.390  -0.388  -0.386  -0.385  -0.385  -0.384
 -0.383  -0.382  -0.381  -0.376  -0.374  -0.372  -0.370  -0.368
 -0.362  -0.359  -0.356  -0.349  -0.343  -0.341  -0.334  -0.331
 -0.326  -0.323  -0.320  -0.304  -0.300  -0.297  -0.290  -0.288
 -0.287  -0.286  -0.286  -0.285  -0.282  -0.270  -0.268  -0.262
 -0.248  -0.243  -0.235  -0.220

          Ground-State Mulliken Net Atomic Charges

     Atom                 Charge (a.u.)    Spin (a.u.)
  --------------------------------------------------------
      1 N                    -0.716239      -0.000118
      2 C                     0.304303       0.000035
      3 C                     0.127500       0.000001
      4 C                    -0.195423       0.000000
      5 C                    -0.316593      -0.000002
      6 H                     0.237442       0.000001
      7 C                    -0.261434      -0.000001
      8 H                     0.236894       0.000000
      9 C                    -0.259698      -0.000006
     10 H                     0.242299       0.000003
     11 C                    -0.329361       0.000009
     12 H                     0.270078      -0.000007
     13 C                     0.308338       0.000036
     14 C                    -0.331015       0.000010
     15 H                     0.267766      -0.000009
     16 C                    -0.258990      -0.000004
     17 H                     0.242880       0.000000
     18 C                    -0.262225      -0.000001
     19 H                     0.236942       0.000000
     20 C                    -0.315679      -0.000002
     21 H                     0.237357       0.000001
     22 C                     0.124029       0.000000
     23 C                     0.188227       0.002040
     24 C                    -0.312146      -0.001689
     25 H                     0.236782       0.000415
     26 C                     0.038953       0.004387
     27 C                    -0.314977      -0.001767
     28 H                     0.236144       0.000401
     29 C                     0.035278       0.004760
     30 C                    -0.177701      -0.028267
     31 C                    -0.543189       0.003080
     32 H                     0.233830       0.000458
     33 H                     0.256969      -0.002313
     34 C                    -0.661513      -0.000044
     35 C                    -0.540922       0.002581
     36 H                     0.233140       0.000457
     37 H                     0.252780      -0.001761
     38 C                    -0.661880      -0.000039
     39 H                     0.243841      -0.000383
     40 H                     0.222998      -0.000008
     41 H                     0.216915      -0.000079
     42 B                     0.515908       0.299109
     43 C                    -0.142252       0.047415
     44 C                    -0.413611      -0.045785
     45 H                     0.229948       0.001537
     46 C                     0.076810       0.074754
     47 C                     0.056243       0.057996
     48 C                    -0.408365      -0.032384
     49 H                     0.217026       0.000802
     50 C                    -0.137372       0.027240
     51 C                     0.175344      -0.052687
     52 C                    -0.413716       0.080704
     53 H                     0.241666      -0.004722
     54 C                    -0.081091       0.023791
     55 C                     0.218875      -0.038678
     56 C                     0.175127      -0.049164
     57 C                    -0.406843       0.076613
     58 H                     0.233337      -0.004499
     59 C                    -0.230309      -0.051125
     60 H                     0.247432       0.002470
     61 C                    -0.364719       0.074073
     62 H                     0.244023      -0.004328
     63 C                    -0.361399       0.071224
     64 H                     0.243773      -0.004153
     65 C                    -0.232578      -0.049175
     66 H                     0.245284       0.002388
     67 C                    -0.139527       0.047127
     68 C                    -0.417553      -0.045721
     69 H                     0.225736       0.001524
     70 C                     0.076482       0.075025
     71 C                     0.055553       0.061273
     72 C                    -0.408319      -0.034851
     73 H                     0.216996       0.000925
     74 C                    -0.133619       0.029920
     75 C                     0.174476      -0.053598
     76 C                    -0.413131       0.082356
     77 H                     0.241651      -0.004806
     78 C                    -0.080705       0.024404
     79 C                     0.219754      -0.039728
     80 C                     0.174374      -0.050896
     81 C                    -0.405743       0.079283
     82 H                     0.234657      -0.004656
     83 C                    -0.230552      -0.052274
     84 H                     0.247703       0.002524
     85 C                    -0.365470       0.075736
     86 H                     0.243861      -0.004425
     87 C                    -0.361654       0.073863
     88 H                     0.243436      -0.004312
     89 C                    -0.233285      -0.050799
     90 H                     0.245571       0.002464
     91 B                     0.504818       0.322077
     92 C                    -0.167981      -0.031894
     93 C                     0.027196       0.007453
     94 C                    -0.286098      -0.018852
     95 H                     0.256970       0.001205
     96 C                     0.123991       0.034732
     97 C                    -0.284044      -0.018741
     98 H                     0.257242       0.001196
     99 C                     0.033165       0.007267
    100 N                    -0.606679      -0.443208
    101 C                     0.302364       0.098007
    102 C                     0.188557      -0.231919
    103 C                    -0.231787       0.038672
    104 C                    -0.309760       0.150973
    105 H                     0.272095      -0.007028
    106 C                    -0.209293      -0.250474
    107 H                     0.279369       0.013330
    108 C                    -0.249594       0.128190
    109 H                     0.278924      -0.005771
    110 C                    -0.269092      -0.179520
    111 H                     0.311843       0.009731
    112 C                     0.306909       0.097643
    113 C                     0.188081      -0.231895
    114 C                    -0.309909       0.151133
    115 H                     0.272245      -0.007040
    116 C                    -0.209419      -0.251359
    117 H                     0.279543       0.013385
    118 C                    -0.249555       0.128818
    119 H                     0.279680      -0.005792
    120 C                    -0.272599      -0.180160
    121 H                     0.311129       0.009749
    122 C                    -0.542048       0.002174
    123 H                     0.237539       0.000546
    124 H                     0.266405      -0.002335
    125 C                    -0.660010      -0.000083
    126 C                    -0.546175       0.002634
    127 H                     0.238194       0.000570
    128 H                     0.270539      -0.002932
    129 C                    -0.659714      -0.000069
    130 H                     0.244174      -0.000290
    131 H                     0.214714      -0.000089
    132 H                     0.230440      -0.000018
    133 H                     0.242763      -0.000252
    134 H                     0.231322      -0.000027
    135 H                     0.214630      -0.000075
    136 H                     0.221570      -0.000003
    137 H                     0.245124      -0.000437
    138 H                     0.216826      -0.000098
    139 C                    -0.617793      -0.022720
    140 C                    -0.617360      -0.023071
    141 C                    -0.621772       0.000000
    142 C                    -0.619152       0.000000
    143 H                     0.232911       0.000000
    144 H                     0.228528      -0.000000
    145 H                     0.228415       0.000000
    146 H                     0.233341      -0.000000
    147 H                     0.228968       0.000000
    148 H                     0.228854       0.000000
    149 H                     0.249691       0.000828
    150 H                     0.249918      -0.000201
    151 H                     0.249709      -0.000238
    152 H                     0.249229       0.000856
    153 H                     0.250024      -0.000261
    154 H                     0.249950      -0.000267
  --------------------------------------------------------
  Sum of atomic charges =    -0.000000

                    Cartesian Multipole Moments
 -----------------------------------------------------------------
    Charge (ESU x 10^10)
                -0.0000
    Dipole Moment (Debye)
         X     -23.2701      Y     -15.8423      Z     -25.2350
       Tot      37.8058
    Quadrupole Moments (Debye-Ang)
        XX    -172.4259     XY     254.8384     YY    -286.9353
        XZ     311.9926     YZ     290.0106     ZZ    -156.9310

 Total job time:  63618.25s(wall), 281266.39s(cpu)
        *  Thank you very much for using Q-Chem.  Have a nice day.  *
