 Q-Chem 5.1, Q-Chem, Inc., Pleasanton, CA (2018)
 Q-Chem 5.1.1 for Intel X86 EM64T Linux

User input:
--------------------------------------------------------------
$rem
threads 8
jobtype	sp
method PBEh-3c
basis def2-mSVP
mem_static	1024
mem_total	8000
sym_ignore	true
unrestricted true
scf_convergence	9
solvent_method	pcm
$end

$molecule
read incoords.mol
$end

$solvent
dielectric	4.33
$end

$pcm
theory iefpcm
$end
--------------------------------------------------------------

   16   -3317.8133412005      5.18e-10  Convergence criterion met
 Total energy in the final basis set =    -3317.8133412005
 Total job time:  4658.87s(wall), 35325.84s(cpu)
        *  Thank you very much for using Q-Chem.  Have a nice day.  *
 Q-Chem 5.1, Q-Chem, Inc., Pleasanton, CA (2018)
 Q-Chem 5.1.1 for Intel X86 EM64T Linux

User input:
--------------------------------------------------------------

$rem
threads 8
jobtype opt
method PBEh-3c
basis def2-mSVP
scf_guess	read
mem_static      1024
mem_total       8000
sym_ignore      true
unrestricted true
mom_start       1
scf_algorithm	diis
scf_max_cycles	250
solvent_method	pcm
geom_opt_tol_energy 25
geom_opt_tol_gradient 75
$end

$solvent
dielectric      4.33
$end

$pcm
theory iefpcm
$end

$occupied
1 2 3 4 5 6 7 8 9 10 11 12 13 14 15 16 17 18 19 20 21 22 23 24 25 26 27 28 29 30 31 32 33 34 35 36 37 38 39 40 41 42 43 44 45 46 47 48 49 50 51 52 53 54 55 56 57 58 59 60 61 62 63 64 65 66 67 68 69 70 71 72 73 74 75 76 77 78 79 80 81 82 83 84 85 86 87 88 89 90 91 92 93 94 95 96 97 98 99 100 101 102 103 104 105 106 107 108 109 110 111 112 113 114 115 116 117 118 119 120 121 122 123 124 125 126 127 128 129 130 131 132 133 134 135 136 137 138 139 140 141 142 143 144 145 146 147 148 149 150 151 152 153 154 155 156 157 158 159 160 161 162 163 164 165 166 167 168 169 170 171 172 173 174 175 176 177 178 179 180 181 182 183 184 185 186 187 188 189 190 191 192 193 194 195 196 197 198 199 200 201 202 203 204 205 206 207 208 209 210 211 212 213 214 215 216 217 218 219 220 221 222 223 224 225 226 227 228 229 230 231 232 233 234 235 236 237 238 239 240 241 242 243 244 245 246 247 248 249 250 251 252 253 254 255 256 257 258 259 260 261 262 263 264 265 266 267 268 269 270 271 272 273 274 275 276 277 278 279 280 281 282 283 284 285 286 287 288 289 290 291  293
1 2 3 4 5 6 7 8 9 10 11 12 13 14 15 16 17 18 19 20 21 22 23 24 25 26 27 28 29 30 31 32 33 34 35 36 37 38 39 40 41 42 43 44 45 46 47 48 49 50 51 52 53 54 55 56 57 58 59 60 61 62 63 64 65 66 67 68 69 70 71 72 73 74 75 76 77 78 79 80 81 82 83 84 85 86 87 88 89 90 91 92 93 94 95 96 97 98 99 100 101 102 103 104 105 106 107 108 109 110 111 112 113 114 115 116 117 118 119 120 121 122 123 124 125 126 127 128 129 130 131 132 133 134 135 136 137 138 139 140 141 142 143 144 145 146 147 148 149 150 151 152 153 154 155 156 157 158 159 160 161 162 163 164 165 166 167 168 169 170 171 172 173 174 175 176 177 178 179 180 181 182 183 184 185 186 187 188 189 190 191 192 193 194 195 196 197 198 199 200 201 202 203 204 205 206 207 208 209 210 211 212 213 214 215 216 217 218 219 220 221 222 223 224 225 226 227 228 229 230 231 232 233 234 235 236 237 238 239 240 241 242 243 244 245 246 247 248 249 250 251 252 253 254 255 256 257 258 259 260 261 262 263 264 265 266 267 268 269 270 271 272 273 274 275 276 277 278 279 280 281 282 283 284 285 286 287 288 289 290 291 292
$end

$molecule
read
$end

--------------------------------------------------------------

   20   -3317.7456355183      6.17E-09 Convergence criterion met
 Total energy in the final basis set = -3317.74563552
   16   -3317.7458920595      6.66E-09 Convergence criterion met
 Total energy in the final basis set = -3317.74589206
   16   -3317.7457055619      7.47E-09 Convergence criterion met
 Total energy in the final basis set = -3317.74570556
   16   -3317.7459655611      6.66E-09 Convergence criterion met
 Total energy in the final basis set = -3317.74596556
   16   -3317.7460425944      6.23E-09 Convergence criterion met
 Total energy in the final basis set = -3317.74604259
   16   -3317.7458650092      6.35E-09 Convergence criterion met
 Total energy in the final basis set = -3317.74586501
   18   -3317.7461617649      6.08E-09 Convergence criterion met
   16   -3317.7461756820      7.00E-09 Convergence criterion met
 Total energy in the final basis set = -3317.74617568
   16   -3317.7461822939      7.24E-09 Convergence criterion met
 Total energy in the final basis set = -3317.74618229
   16   -3317.7462006002      8.73E-09 Convergence criterion met
 Total energy in the final basis set = -3317.74620060
   16   -3317.7462092665      7.48E-09 Convergence criterion met
 Total energy in the final basis set = -3317.74620927
   16   -3317.7462103555      7.47E-09 Convergence criterion met
 Total energy in the final basis set = -3317.74621036
   16   -3317.7462162040      7.70E-09 Convergence criterion met
 Total energy in the final basis set = -3317.74621620

             Standard Nuclear Orientation (Angstroms)
    I     Atom           X                Y                Z
 ----------------------------------------------------------------
    1      N       0.1081341744    -1.1497154071     0.7324452190
    2      C      -0.6055478851    -0.3593898678     1.6249755615
    3      C       0.0532281630     0.5146742617     2.4957729718
    4      C       1.5636229172     0.6583773742     2.5215248830
    5      C      -0.7186896113     1.2848834464     3.3618551666
    6      H      -0.2220992279     1.9703440417     4.0381344757
    7      C      -2.1005306582     1.2144841596     3.3934219733
    8      H      -2.6642699019     1.8305910115     4.0811404306
    9      C      -2.7414437244     0.3413183279     2.5280970727
   10      H      -3.8210906087     0.2593951345     2.5268361435
   11      C      -2.0057855261    -0.4357866055     1.6550707916
   12      H      -2.5258121788    -1.1092155593     0.9885798797
   13      C       1.4952575488    -1.1202733845     0.6796999136
   14      C       2.1761680079    -1.9470149326    -0.2237827656
   15      H       1.6221491480    -2.6063584903    -0.8771203084
   16      C       3.5555189580    -1.9355103396    -0.2958105874
   17      H       4.0521570912    -2.5857672795    -1.0046122406
   18      C       4.2910232299    -1.0998923597     0.5307256711
   19      H       5.3715387820    -1.0807191706     0.4837120354
   20      C       3.6141170854    -0.2855127275     1.4216929235
   21      H       4.1897572849     0.3684468288     2.0654151064
   22      C       2.2259174351    -0.2724985571     1.5201214360
   23      C      -0.6115749129    -1.9785661120    -0.1748226795
   24      C      -0.9390238125    -3.2769906615     0.1741840713
   25      H      -0.6243598325    -3.6651363123     1.1372750697
   26      C      -1.6795036628    -4.0767622931    -0.6928886394
   27      C      -1.0099516478    -1.4762122389    -1.4024508337
   28      H      -0.7479913878    -0.4583877555    -1.6712424289
   29      C      -1.7542677467    -2.2580867781    -2.2787924313
   30      C      -2.1112968785    -3.5715494483    -1.9281948101
   31      C      -2.1343385606    -1.6772517930    -3.6172052177
   32      H      -2.2005285050    -0.5891721805    -3.5352118335
   33      H      -3.1287137623    -2.0215348803    -3.9108904485
   34      C      -1.1342747897    -2.0387081783    -4.7136298242
   35      C      -2.0563828212    -5.4670067138    -0.2471055127
   36      H      -1.2589308539    -5.8768927929     0.3785904946
   37      H      -2.1371301219    -6.1294284697    -1.1119510059
   38      C      -3.3696028793    -5.4934316976     0.5318533032
   39      H      -4.1970470811    -5.1405726443    -0.0834947837
   40      H      -3.6079651980    -6.5057055789     0.8613824985
   41      H      -3.3155715990    -4.8567199535     1.4163127074
   42      B      -3.0494487913    -4.4135163613    -2.8929378412
   43      C      -4.5673796919    -4.1511610360    -2.8611829058
   44      C      -5.1251916063    -3.2433191577    -1.9333860187
   45      H      -4.4704254968    -2.7275017650    -1.2385916944
   46      C      -6.4798127238    -3.0102042730    -1.8985298283
   47      C      -7.3361062988    -3.6877629717    -2.8169621091
   48      C      -6.8168395669    -4.5634282155    -3.7344997437
   49      H      -7.4788259395    -5.0663846204    -4.4329583987
   50      C      -5.4327398251    -4.8219470071    -3.7810540845
   51      C      -7.3202812862    -2.1560217047    -1.0574924171
   52      C      -7.1070626368    -1.2827560386    -0.0193159248
   53      H      -6.1142554859    -1.0861083604     0.3665158566
   54      C      -8.6485660455    -2.3509865407    -1.4949990823
   55      C      -9.7648407467    -1.7222898397    -0.9471391359
   56      C      -8.7100560110    -3.2711796858    -2.5606256747
   57      C      -9.9373450103    -3.5752060911    -3.0991942486
   58      H     -10.0439282690    -4.2758127134    -3.9189814449
   59      C      -8.2219027551    -0.6266520816     0.5554977077
   60      H      -8.0475155676     0.0611365719     1.3732725293
   61      C      -9.5127291163    -0.8274206979     0.1209111585
   62      H     -10.3331470388    -0.3022232330     0.5950074790
   63      C     -11.0188428495    -2.0523602754    -1.5198175636
   64      H     -11.9255660099    -1.5987699290    -1.1377937803
   65      C     -11.0859752971    -2.9507082762    -2.5611665137
   66      H     -12.0532232240    -3.1908953247    -2.9852255673
   67      C      -2.4860379509    -5.4477944032    -3.8825595642
   68      C      -1.1072860644    -5.7567216703    -3.9062037124
   69      H      -0.4421428808    -5.2539004166    -3.2110316993
   70      C      -0.6043540350    -6.6828049582    -4.7908710735
   71      C      -1.4855006102    -7.3328628451    -5.7062890595
   72      C      -2.8245717123    -7.0402771116    -5.7105150048
   73      H      -3.4836835307    -7.5394442003    -6.4144113449
   74      C      -3.3617183445    -6.1045884779    -4.8047721726
   75      C       0.7415111465    -7.2096845967    -5.0250893641
   76      C       1.9859688346    -7.0024211386    -4.4834921287
   77      H       2.1488474993    -6.2933904141    -3.6813934694
   78      C       0.6227880452    -8.1566820665    -6.0660492211
   79      C       1.6771879375    -8.9036360882    -6.5851715186
   80      C      -0.7095651384    -8.2656468293    -6.5118694432
   81      C      -1.0010603394    -9.1546774529    -7.5178382868
   82      H      -2.0091329512    -9.2803803304    -7.8948679038
   83      C       3.0782905809    -7.7441727220    -4.9932929547
   84      H       4.0573191045    -7.5770526424    -4.5623194344
   85      C       2.9481167731    -8.6667040088    -6.0071220878
   86      H       3.8158018531    -9.2108697437    -6.3598633302
   87      C       1.3521915463    -9.8132490503    -7.6227084340
   88      H       2.1268753941   -10.4250237221    -8.0690896020
   89      C       0.0520744267    -9.9233096740    -8.0634014503
   90      H      -0.1753298759   -10.6259479348    -8.8555987929
   91      B      -4.8614757907    -5.8001506926    -4.8100793638
   92      C      -5.8193157332    -6.4641287461    -5.8934286823
   93      C      -6.1782872148    -5.7413199317    -7.0450568159
   94      C      -7.0366334441    -6.2959624517    -7.9882535848
   95      H      -7.3250500678    -5.7352402860    -8.8705655129
   96      C      -7.5231942358    -7.5720909532    -7.7889927374
   97      C      -7.1810043721    -8.3149403046    -6.6778021974
   98      H      -7.5822142490    -9.3141060718    -6.5472128681
   99      C      -6.3319227875    -7.7611234099    -5.7246292694
  100      N      -8.4386625588    -8.1309924261    -8.7493384712
  101      C      -9.7869761109    -7.9724275266    -8.5292226756
  102      C     -10.7193076111    -8.5037934408    -9.4414615078
  103      C     -10.3051551660    -9.2534131838   -10.6827548709
  104      C     -12.0670978645    -8.3176239713    -9.1696115182
  105      H     -12.8082129085    -8.7148192768    -9.8503421090
  106      C     -12.4975821290    -7.6318222304    -8.0467656003
  107      H     -13.5566093134    -7.5053315390    -7.8677649275
  108      C     -11.5665906756    -7.1052113129    -7.1533332920
  109      H     -11.8942705862    -6.5658797791    -6.2756949008
  110      C     -10.2241507379    -7.2698357388    -7.3865362557
  111      H      -9.5092363257    -6.8572547807    -6.6908716508
  112      C      -7.9328866245    -8.7928269333    -9.8435072683
  113      C      -8.8046965152    -9.3424938987   -10.8038223336
  114      C      -8.2387624999    -9.9921761162   -11.8909221605
  115      H      -8.8805285604   -10.4254644012   -12.6463579514
  116      C      -6.8668328741   -10.1063382809   -12.0401015901
  117      H      -6.4615827002   -10.6189729191   -12.9018153628
  118      C      -6.0137965696    -9.5635846959   -11.0808809410
  119      H      -4.9418888665    -9.6509001279   -11.1889984108
  120      C      -6.5356664129    -8.9129011003    -9.9908636193
  121      H      -5.8711483882    -8.4934656828    -9.2504283415
  122      C      -6.0421862589    -8.5692008505    -4.4882700493
  123      H      -5.9580662022    -9.6264130151    -4.7535889633
  124      H      -5.0794921845    -8.2780788333    -4.0659681308
  125      C      -7.1351151812    -8.3955546110    -3.4356489140
  126      C      -5.6085301252    -4.3780308188    -7.3300813649
  127      H      -6.3541822107    -3.7696531207    -7.8486690580
  128      H      -5.3839832006    -3.8624549413    -6.3953604014
  129      C      -4.3430713536    -4.4667084730    -8.1801387255
  130      H      -3.5737517882    -5.0488444828    -7.6728893127
  131      H      -4.5443483174    -4.9418037858    -9.1421097891
  132      H      -3.9352910800    -3.4745971915    -8.3752796973
  133      H      -7.2099528202    -7.3548266373    -3.1198458795
  134      H      -6.9235073035    -8.9971223358    -2.5513532919
  135      H      -8.1090105603    -8.7001636191    -3.8233512091
  136      H      -1.4256628186    -1.5963857837    -5.6674899262
  137      H      -1.0783886060    -3.1182132523    -4.8522619529
  138      H      -0.1336670729    -1.6798020588    -4.4683270062
  139      C     -10.8684620397    -8.5220424236   -11.9192848191
  140      C     -10.8832018501   -10.6824693312   -10.6170969838
  141      C       2.0696324031     0.3171507198     3.9332622031
  142      C       1.9281540279     2.1097388291     2.1688678722
  143      H       1.5659225996     2.3667285944     1.1729660415
  144      H       3.0080472371     2.2607824203     2.1843845360
  145      H       1.4883297326     2.8114619418     2.8784453778
  146      H       1.8180781378    -0.7111213835     4.1949884677
  147      H       1.6248968484     0.9726685206     4.6826429097
  148      H       3.1518292335     0.4281639747     4.0069602099
  149      H     -10.4710300660    -7.5104660654   -11.9955472815
  150      H     -11.9548166625    -8.4587785710   -11.8684823028
  151      H     -10.6171312900    -9.0572275104   -12.8342716789
  152      H     -10.4997163867   -11.2239843477    -9.7529890696
  153      H     -10.6264869597   -11.2458907332   -11.5135280260
  154      H     -11.9700278544   -10.6573469104   -10.5478081417
 ----------------------------------------------------------------

   16   -3317.7462175523      7.89E-09 Convergence criterion met
 Total energy in the final basis set = -3317.74621755
 Final energy is   -3317.74621755234
 **  OPTIMIZATION CONVERGED  **

                    Orbital Energies (a.u.)
 --------------------------------------------------------------

 Alpha MOs
 -- Occupied --
-14.777 -14.668 -10.549 -10.549 -10.510 -10.509 -10.507 -10.507
-10.490 -10.489 -10.487 -10.487 -10.486 -10.486 -10.485 -10.485
-10.483 -10.483 -10.470 -10.462 -10.461 -10.461 -10.461 -10.460
-10.454 -10.454 -10.452 -10.452 -10.449 -10.448 -10.448 -10.447
-10.447 -10.447 -10.447 -10.447 -10.446 -10.446 -10.446 -10.446
-10.446 -10.445 -10.445 -10.445 -10.445 -10.445 -10.438 -10.438
-10.438 -10.438 -10.437 -10.437 -10.437 -10.437 -10.436 -10.435
-10.434 -10.434 -10.433 -10.433 -10.433 -10.432 -10.432 -10.430
-10.430 -10.430 -10.430 -10.430 -10.430 -10.429 -10.428 -10.420
-10.420 -10.419 -10.418 -10.418 -10.418 -10.411 -10.408 -10.407
-10.404 -10.404 -10.404 -10.404  -6.898  -6.897  -1.153  -1.080
 -1.009  -1.006  -0.998  -0.998  -0.972  -0.961  -0.952  -0.951
 -0.941  -0.938  -0.937  -0.919  -0.918  -0.902  -0.901  -0.897
 -0.891  -0.884  -0.882  -0.878  -0.876  -0.858  -0.855  -0.844
 -0.838  -0.835  -0.834  -0.832  -0.832  -0.829  -0.813  -0.812
 -0.810  -0.809  -0.800  -0.796  -0.795  -0.794  -0.790  -0.782
 -0.778  -0.763  -0.762  -0.760  -0.727  -0.722  -0.716  -0.714
 -0.713  -0.711  -0.711  -0.703  -0.702  -0.701  -0.700  -0.693
 -0.678  -0.673  -0.671  -0.664  -0.663  -0.662  -0.657  -0.656
 -0.645  -0.638  -0.629  -0.625  -0.625  -0.619  -0.613  -0.609
 -0.608  -0.583  -0.580  -0.578  -0.577  -0.575  -0.572  -0.571
 -0.571  -0.568  -0.566  -0.564  -0.557  -0.557  -0.544  -0.540
 -0.539  -0.535  -0.529  -0.529  -0.527  -0.525  -0.523  -0.521
 -0.517  -0.515  -0.513  -0.510  -0.509  -0.503  -0.499  -0.496
 -0.492  -0.490  -0.489  -0.489  -0.487  -0.484  -0.483  -0.482
 -0.479  -0.479  -0.475  -0.475  -0.473  -0.472  -0.472  -0.471
 -0.471  -0.470  -0.469  -0.467  -0.467  -0.464  -0.463  -0.461
 -0.461  -0.460  -0.459  -0.449  -0.449  -0.448  -0.447  -0.446
 -0.440  -0.439  -0.437  -0.434  -0.433  -0.431  -0.426  -0.425
 -0.422  -0.421  -0.420  -0.417  -0.416  -0.416  -0.412  -0.412
 -0.410  -0.409  -0.407  -0.405  -0.404  -0.400  -0.399  -0.397
 -0.390  -0.390  -0.389  -0.386  -0.384  -0.383  -0.383  -0.379
 -0.379  -0.378  -0.377  -0.373  -0.372  -0.370  -0.365  -0.364
 -0.359  -0.356  -0.353  -0.349  -0.341  -0.332  -0.331  -0.324
 -0.323  -0.323  -0.316  -0.305  -0.299  -0.292  -0.290  -0.288
 -0.286  -0.284  -0.283  -0.278  -0.268  -0.265  -0.262  -0.251
 -0.241  -0.237  -0.215  -0.146

 Beta MOs
 -- Occupied --
-14.789 -14.668 -10.547 -10.547 -10.510 -10.510 -10.509 -10.509
-10.492 -10.492 -10.491 -10.490 -10.486 -10.486 -10.483 -10.483
-10.481 -10.481 -10.470 -10.462 -10.461 -10.461 -10.461 -10.460
-10.455 -10.455 -10.453 -10.452 -10.448 -10.448 -10.448 -10.448
-10.448 -10.447 -10.447 -10.447 -10.446 -10.446 -10.446 -10.445
-10.445 -10.445 -10.445 -10.445 -10.444 -10.444 -10.438 -10.438
-10.438 -10.437 -10.437 -10.437 -10.436 -10.436 -10.435 -10.434
-10.434 -10.433 -10.433 -10.433 -10.433 -10.432 -10.432 -10.431
-10.431 -10.431 -10.430 -10.430 -10.430 -10.429 -10.428 -10.420
-10.420 -10.419 -10.418 -10.418 -10.418 -10.411 -10.408 -10.407
-10.404 -10.404 -10.403 -10.403  -6.895  -6.895  -1.172  -1.080
 -1.014  -1.010  -0.998  -0.998  -0.974  -0.961  -0.954  -0.952
 -0.940  -0.937  -0.937  -0.918  -0.918  -0.904  -0.902  -0.897
 -0.891  -0.884  -0.883  -0.877  -0.876  -0.861  -0.855  -0.844
 -0.843  -0.834  -0.833  -0.831  -0.831  -0.829  -0.815  -0.813
 -0.810  -0.809  -0.798  -0.797  -0.794  -0.793  -0.790  -0.780
 -0.777  -0.765  -0.764  -0.762  -0.728  -0.723  -0.716  -0.715
 -0.714  -0.710  -0.710  -0.703  -0.701  -0.701  -0.700  -0.693
 -0.677  -0.673  -0.671  -0.666  -0.663  -0.661  -0.660  -0.653
 -0.644  -0.641  -0.629  -0.625  -0.625  -0.618  -0.615  -0.609
 -0.608  -0.585  -0.584  -0.582  -0.577  -0.576  -0.575  -0.573
 -0.570  -0.568  -0.566  -0.565  -0.556  -0.555  -0.543  -0.540
 -0.540  -0.539  -0.535  -0.529  -0.528  -0.524  -0.523  -0.522
 -0.517  -0.516  -0.513  -0.510  -0.508  -0.504  -0.503  -0.497
 -0.495  -0.492  -0.490  -0.489  -0.488  -0.487  -0.483  -0.482
 -0.479  -0.479  -0.475  -0.475  -0.473  -0.472  -0.472  -0.471
 -0.471  -0.470  -0.468  -0.467  -0.467  -0.465  -0.463  -0.462
 -0.461  -0.460  -0.459  -0.456  -0.448  -0.448  -0.447  -0.446
 -0.440  -0.439  -0.438  -0.436  -0.432  -0.432  -0.431  -0.425
 -0.422  -0.421  -0.420  -0.420  -0.418  -0.416  -0.414  -0.411
 -0.410  -0.409  -0.407  -0.406  -0.404  -0.400  -0.398  -0.397
 -0.390  -0.390  -0.388  -0.387  -0.383  -0.381  -0.381  -0.379
 -0.378  -0.377  -0.377  -0.373  -0.372  -0.370  -0.365  -0.364
 -0.358  -0.354  -0.351  -0.347  -0.344  -0.339  -0.337  -0.329
 -0.329  -0.322  -0.315  -0.299  -0.295  -0.292  -0.291  -0.291
 -0.286  -0.283  -0.282  -0.282  -0.278  -0.265  -0.263  -0.257
 -0.243  -0.238  -0.229  -0.215

          Ground-State Mulliken Net Atomic Charges

     Atom                 Charge (a.u.)    Spin (a.u.)
  --------------------------------------------------------
      1 N                    -0.717425      -0.000119
      2 C                     0.306377       0.000036
      3 C                     0.131750       0.000001
      4 C                    -0.198203       0.000000
      5 C                    -0.311290      -0.000002
      6 H                     0.228526       0.000001
      7 C                    -0.255051      -0.000001
      8 H                     0.229690       0.000000
      9 C                    -0.253767      -0.000007
     10 H                     0.234724       0.000003
     11 C                    -0.323683       0.000010
     12 H                     0.268077      -0.000008
     13 C                     0.310330       0.000036
     14 C                    -0.325982       0.000011
     15 H                     0.266428      -0.000009
     16 C                    -0.253544      -0.000004
     17 H                     0.236054       0.000000
     18 C                    -0.255825      -0.000000
     19 H                     0.229753       0.000000
     20 C                    -0.310397      -0.000002
     21 H                     0.228396       0.000001
     22 C                     0.128330       0.000000
     23 C                     0.186289       0.002071
     24 C                    -0.309277      -0.001709
     25 H                     0.232078       0.000413
     26 C                     0.042299       0.004368
     27 C                    -0.310851      -0.001785
     28 H                     0.231206       0.000398
     29 C                     0.039146       0.004767
     30 C                    -0.179373      -0.027781
     31 C                    -0.543650       0.003024
     32 H                     0.230080       0.000447
     33 H                     0.259423      -0.002251
     34 C                    -0.658703      -0.000011
     35 C                    -0.541581       0.002532
     36 H                     0.229367       0.000442
     37 H                     0.255427      -0.001713
     38 C                    -0.659444      -0.000008
     39 H                     0.247724      -0.000384
     40 H                     0.219742      -0.000010
     41 H                     0.214529      -0.000078
     42 B                     0.527452       0.294049
     43 C                    -0.142603       0.051421
     44 C                    -0.410279      -0.049488
     45 H                     0.227018       0.001754
     46 C                     0.082653       0.079237
     47 C                     0.062419       0.053665
     48 C                    -0.405570      -0.029635
     49 H                     0.206834       0.000651
     50 C                    -0.134423       0.023051
     51 C                     0.181009      -0.053570
     52 C                    -0.410008       0.082182
     53 H                     0.234495      -0.004829
     54 C                    -0.080292       0.023767
     55 C                     0.227341      -0.038775
     56 C                     0.180811      -0.047733
     57 C                    -0.403611       0.075335
     58 H                     0.220464      -0.004468
     59 C                    -0.223462      -0.051739
     60 H                     0.239936       0.002509
     61 C                    -0.362388       0.075498
     62 H                     0.235437      -0.004447
     63 C                    -0.358823       0.070459
     64 H                     0.235198      -0.004133
     65 C                    -0.225854      -0.048636
     66 H                     0.235301       0.002384
     67 C                    -0.139644       0.050669
     68 C                    -0.414915      -0.049103
     69 H                     0.223148       0.001726
     70 C                     0.082461       0.079118
     71 C                     0.061694       0.056567
     72 C                    -0.405844      -0.031723
     73 H                     0.207699       0.000757
     74 C                    -0.130800       0.025358
     75 C                     0.180016      -0.054224
     76 C                    -0.410030       0.083365
     77 H                     0.235172      -0.004884
     78 C                    -0.079759       0.024234
     79 C                     0.228098      -0.039588
     80 C                     0.180037      -0.049226
     81 C                    -0.402941       0.077537
     82 H                     0.222908      -0.004594
     83 C                    -0.223916      -0.052604
     84 H                     0.240315       0.002551
     85 C                    -0.363068       0.076714
     86 H                     0.235295      -0.004518
     87 C                    -0.358959       0.072635
     88 H                     0.234879      -0.004265
     89 C                    -0.226766      -0.049964
     90 H                     0.235931       0.002445
     91 B                     0.508947       0.327168
     92 C                    -0.165766      -0.031774
     93 C                     0.029571       0.007617
     94 C                    -0.287729      -0.019205
     95 H                     0.249606       0.001218
     96 C                     0.124064       0.035018
     97 C                    -0.285427      -0.019086
     98 H                     0.249678       0.001211
     99 C                     0.034872       0.007385
    100 N                    -0.605634      -0.445215
    101 C                     0.297968       0.099558
    102 C                     0.190126      -0.231951
    103 C                    -0.235328       0.038689
    104 C                    -0.306209       0.151054
    105 H                     0.264886      -0.007077
    106 C                    -0.205270      -0.251036
    107 H                     0.275241       0.013401
    108 C                    -0.245390       0.129771
    109 H                     0.275682      -0.005865
    110 C                    -0.265843      -0.181127
    111 H                     0.312454       0.009796
    112 C                     0.302627       0.099285
    113 C                     0.189612      -0.231809
    114 C                    -0.306343       0.151129
    115 H                     0.265010      -0.007085
    116 C                    -0.205468      -0.251733
    117 H                     0.275367       0.013447
    118 C                    -0.245632       0.130319
    119 H                     0.276735      -0.005881
    120 C                    -0.269832      -0.181690
    121 H                     0.312016       0.009808
    122 C                    -0.542468       0.002081
    123 H                     0.232356       0.000570
    124 H                     0.273431      -0.002282
    125 C                    -0.657796      -0.000064
    126 C                    -0.546525       0.002510
    127 H                     0.232979       0.000604
    128 H                     0.277188      -0.002862
    129 C                    -0.657481      -0.000046
    130 H                     0.251021      -0.000321
    131 H                     0.208040      -0.000099
    132 H                     0.230145      -0.000030
    133 H                     0.248932      -0.000274
    134 H                     0.231300      -0.000040
    135 H                     0.207850      -0.000082
    136 H                     0.217737      -0.000004
    137 H                     0.248885      -0.000439
    138 H                     0.214733      -0.000096
    139 C                    -0.613172      -0.022392
    140 C                    -0.612485      -0.022938
    141 C                    -0.617119      -0.000000
    142 C                    -0.614183       0.000000
    143 H                     0.234360       0.000000
    144 H                     0.224303      -0.000000
    145 H                     0.224142       0.000000
    146 H                     0.234956      -0.000000
    147 H                     0.224742       0.000000
    148 H                     0.224548       0.000000
    149 H                     0.249886       0.000811
    150 H                     0.247089      -0.000187
    151 H                     0.246700      -0.000234
    152 H                     0.249167       0.000856
    153 H                     0.247153      -0.000273
    154 H                     0.247228      -0.000282
  --------------------------------------------------------
  Sum of atomic charges =    -0.000000

                    Cartesian Multipole Moments
 -----------------------------------------------------------------
    Charge (ESU x 10^10)
                -0.0000
    Dipole Moment (Debye)
         X     -22.5478      Y     -15.5044      Z     -24.6236
       Tot      36.8119
    Quadrupole Moments (Debye-Ang)
        XX    -188.3678     XY     248.3679     YY    -295.8416
        XZ     302.5673     YZ     279.7688     ZZ    -169.3024

 Total job time:  63738.69s(wall), 282370.15s(cpu)
        *  Thank you very much for using Q-Chem.  Have a nice day.  *
