 Q-Chem 5.1, Q-Chem, Inc., Pleasanton, CA (2018)
 Q-Chem 5.1.1 for Intel X86 EM64T Linux

User input:
--------------------------------------------------------------
$rem
threads 8
jobtype	sp
method PBEh-3c
basis def2-mSVP
mem_static	1024
mem_total	8000
sym_ignore	true
unrestricted true
scf_convergence	9
solvent_method	pcm
$end

$molecule
read incoords.mol
$end

$solvent
dielectric	1.0001
$end

$pcm
theory iefpcm
$end
--------------------------------------------------------------

   17   -3317.7860720281      4.49e-10  Convergence criterion met
 Total energy in the final basis set =    -3317.7860720281
 Total job time:  5568.88s(wall), 41538.96s(cpu)
        *  Thank you very much for using Q-Chem.  Have a nice day.  *
 Q-Chem 5.1, Q-Chem, Inc., Pleasanton, CA (2018)
 Q-Chem 5.1.1 for Intel X86 EM64T Linux

User input:
--------------------------------------------------------------

$rem
threads 8
jobtype opt
method PBEh-3c
basis def2-mSVP
scf_guess	read
mem_static      1024
mem_total       8000
sym_ignore      true
unrestricted true
mom_start       1
scf_algorithm	diis
scf_max_cycles	250
solvent_method	pcm
geom_opt_tol_energy 25
geom_opt_tol_gradient 75
$end

$solvent
dielectric      1.0001
$end

$pcm
theory iefpcm
$end

$occupied
1 2 3 4 5 6 7 8 9 10 11 12 13 14 15 16 17 18 19 20 21 22 23 24 25 26 27 28 29 30 31 32 33 34 35 36 37 38 39 40 41 42 43 44 45 46 47 48 49 50 51 52 53 54 55 56 57 58 59 60 61 62 63 64 65 66 67 68 69 70 71 72 73 74 75 76 77 78 79 80 81 82 83 84 85 86 87 88 89 90 91 92 93 94 95 96 97 98 99 100 101 102 103 104 105 106 107 108 109 110 111 112 113 114 115 116 117 118 119 120 121 122 123 124 125 126 127 128 129 130 131 132 133 134 135 136 137 138 139 140 141 142 143 144 145 146 147 148 149 150 151 152 153 154 155 156 157 158 159 160 161 162 163 164 165 166 167 168 169 170 171 172 173 174 175 176 177 178 179 180 181 182 183 184 185 186 187 188 189 190 191 192 193 194 195 196 197 198 199 200 201 202 203 204 205 206 207 208 209 210 211 212 213 214 215 216 217 218 219 220 221 222 223 224 225 226 227 228 229 230 231 232 233 234 235 236 237 238 239 240 241 242 243 244 245 246 247 248 249 250 251 252 253 254 255 256 257 258 259 260 261 262 263 264 265 266 267 268 269 270 271 272 273 274 275 276 277 278 279 280 281 282 283 284 285 286 287 288 289 290 291  293
1 2 3 4 5 6 7 8 9 10 11 12 13 14 15 16 17 18 19 20 21 22 23 24 25 26 27 28 29 30 31 32 33 34 35 36 37 38 39 40 41 42 43 44 45 46 47 48 49 50 51 52 53 54 55 56 57 58 59 60 61 62 63 64 65 66 67 68 69 70 71 72 73 74 75 76 77 78 79 80 81 82 83 84 85 86 87 88 89 90 91 92 93 94 95 96 97 98 99 100 101 102 103 104 105 106 107 108 109 110 111 112 113 114 115 116 117 118 119 120 121 122 123 124 125 126 127 128 129 130 131 132 133 134 135 136 137 138 139 140 141 142 143 144 145 146 147 148 149 150 151 152 153 154 155 156 157 158 159 160 161 162 163 164 165 166 167 168 169 170 171 172 173 174 175 176 177 178 179 180 181 182 183 184 185 186 187 188 189 190 191 192 193 194 195 196 197 198 199 200 201 202 203 204 205 206 207 208 209 210 211 212 213 214 215 216 217 218 219 220 221 222 223 224 225 226 227 228 229 230 231 232 233 234 235 236 237 238 239 240 241 242 243 244 245 246 247 248 249 250 251 252 253 254 255 256 257 258 259 260 261 262 263 264 265 266 267 268 269 270 271 272 273 274 275 276 277 278 279 280 281 282 283 284 285 286 287 288 289 290 291 292
$end

$molecule
read
$end

--------------------------------------------------------------

   47   -3317.6977721986      7.41E-09 Convergence criterion met
 Total energy in the final basis set = -3317.69777220
   41   -3317.7005111175      6.93E-09 Convergence criterion met
 Total energy in the final basis set = -3317.70051112
   19   -3317.6991614088      6.23E-09 Convergence criterion met
 Total energy in the final basis set = -3317.69916141
   50   -3317.6974251418      4.31E-09 Convergence criterion met
 Total energy in the final basis set = -3317.69742514
   30   -3317.6988457482      7.14E-09 Convergence criterion met
 Total energy in the final basis set = -3317.69884575
   27   -3317.6941832782      9.48E-09 Convergence criterion met
 Total energy in the final basis set = -3317.69418328
   21   -3317.6958759271      9.16E-09 Convergence criterion met
 Total energy in the final basis set = -3317.69333913
   28   -3317.6960461572      8.40E-09 Convergence criterion met
 Total energy in the final basis set = -3317.69604616
   23   -3317.6967311517      8.04E-09 Convergence criterion met
 Total energy in the final basis set = -3317.69673115
   41   -3317.6985161789      7.91E-09 Convergence criterion met
 Total energy in the final basis set = -3317.69851618
   18   -3317.6992354836      8.68E-09 Convergence criterion met
 Total energy in the final basis set = -3317.69923548
   15   -3317.6998071125      8.24E-09 Convergence criterion met
 Total energy in the final basis set = -3317.69980711
   15   -3317.6999094481      7.76E-09 Convergence criterion met
 Total energy in the final basis set = -3317.69990945
   14   -3317.6998922362      7.89E-09 Convergence criterion met
 Total energy in the final basis set = -3317.69989224

                    Orbital Energies (a.u.)
 --------------------------------------------------------------

 Alpha MOs
 -- Occupied --
-14.670 -14.669 -10.487 -10.487 -10.486 -10.486 -10.482 -10.482
-10.481 -10.480 -10.479 -10.479 -10.476 -10.476 -10.475 -10.475
-10.474 -10.474 -10.474 -10.473 -10.473 -10.473 -10.472 -10.472
-10.472 -10.472 -10.470 -10.469 -10.469 -10.469 -10.466 -10.466
-10.464 -10.463 -10.462 -10.462 -10.460 -10.460 -10.453 -10.453
-10.451 -10.450 -10.450 -10.450 -10.450 -10.450 -10.445 -10.445
-10.444 -10.444 -10.439 -10.439 -10.439 -10.439 -10.439 -10.438
-10.438 -10.438 -10.438 -10.438 -10.438 -10.438 -10.434 -10.434
-10.434 -10.434 -10.434 -10.433 -10.433 -10.433 -10.431 -10.431
-10.431 -10.430 -10.426 -10.425 -10.422 -10.421 -10.421 -10.421
-10.421 -10.420 -10.420 -10.419  -6.923  -6.921  -1.083  -1.082
 -1.028  -1.027  -0.971  -0.968  -0.966  -0.966  -0.953  -0.952
 -0.946  -0.945  -0.945  -0.944  -0.916  -0.908  -0.904  -0.903
 -0.890  -0.888  -0.873  -0.869  -0.865  -0.863  -0.858  -0.858
 -0.845  -0.845  -0.830  -0.830  -0.829  -0.826  -0.823  -0.819
 -0.818  -0.810  -0.810  -0.808  -0.802  -0.802  -0.785  -0.784
 -0.765  -0.764  -0.745  -0.743  -0.740  -0.730  -0.719  -0.718
 -0.713  -0.712  -0.706  -0.704  -0.702  -0.702  -0.699  -0.693
 -0.689  -0.684  -0.677  -0.677  -0.665  -0.664  -0.656  -0.654
 -0.635  -0.633  -0.631  -0.631  -0.611  -0.611  -0.610  -0.610
 -0.608  -0.604  -0.600  -0.599  -0.593  -0.586  -0.585  -0.582
 -0.581  -0.556  -0.555  -0.553  -0.552  -0.547  -0.538  -0.536
 -0.532  -0.531  -0.531  -0.527  -0.524  -0.519  -0.519  -0.518
 -0.517  -0.514  -0.513  -0.509  -0.504  -0.503  -0.502  -0.500
 -0.497  -0.495  -0.494  -0.494  -0.493  -0.493  -0.492  -0.492
 -0.489  -0.486  -0.486  -0.485  -0.484  -0.479  -0.477  -0.475
 -0.474  -0.474  -0.473  -0.472  -0.471  -0.470  -0.464  -0.462
 -0.457  -0.455  -0.449  -0.447  -0.447  -0.445  -0.441  -0.441
 -0.440  -0.435  -0.435  -0.434  -0.433  -0.432  -0.428  -0.425
 -0.424  -0.423  -0.422  -0.422  -0.419  -0.418  -0.410  -0.410
 -0.409  -0.409  -0.408  -0.407  -0.407  -0.405  -0.402  -0.402
 -0.400  -0.398  -0.395  -0.394  -0.393  -0.390  -0.389  -0.388
 -0.387  -0.386  -0.383  -0.374  -0.373  -0.369  -0.368  -0.367
 -0.364  -0.361  -0.361  -0.359  -0.354  -0.352  -0.346  -0.338
 -0.336  -0.329  -0.307  -0.305  -0.293  -0.292  -0.283  -0.282
 -0.280  -0.278  -0.277  -0.277  -0.274  -0.274  -0.273  -0.270
 -0.265  -0.216  -0.216  -0.172

 Beta MOs
 -- Occupied --
-14.670 -14.669 -10.487 -10.487 -10.486 -10.486 -10.483 -10.483
-10.482 -10.481 -10.479 -10.479 -10.476 -10.476 -10.475 -10.475
-10.474 -10.473 -10.473 -10.473 -10.473 -10.472 -10.472 -10.472
-10.471 -10.471 -10.470 -10.470 -10.470 -10.469 -10.468 -10.467
-10.464 -10.463 -10.462 -10.461 -10.459 -10.459 -10.455 -10.455
-10.452 -10.452 -10.450 -10.450 -10.450 -10.449 -10.445 -10.445
-10.444 -10.444 -10.439 -10.439 -10.439 -10.439 -10.439 -10.438
-10.438 -10.438 -10.438 -10.438 -10.438 -10.438 -10.434 -10.434
-10.434 -10.434 -10.434 -10.433 -10.433 -10.433 -10.431 -10.431
-10.431 -10.430 -10.427 -10.426 -10.422 -10.421 -10.421 -10.421
-10.421 -10.420 -10.420 -10.419  -6.919  -6.918  -1.083  -1.082
 -1.030  -1.030  -0.973  -0.970  -0.966  -0.966  -0.953  -0.952
 -0.946  -0.945  -0.944  -0.944  -0.918  -0.911  -0.904  -0.903
 -0.890  -0.888  -0.872  -0.869  -0.864  -0.862  -0.858  -0.858
 -0.845  -0.845  -0.832  -0.830  -0.830  -0.826  -0.823  -0.819
 -0.818  -0.814  -0.810  -0.810  -0.802  -0.802  -0.785  -0.784
 -0.765  -0.764  -0.744  -0.742  -0.740  -0.731  -0.718  -0.718
 -0.713  -0.712  -0.705  -0.704  -0.702  -0.702  -0.700  -0.692
 -0.690  -0.684  -0.678  -0.677  -0.665  -0.664  -0.657  -0.655
 -0.634  -0.633  -0.631  -0.631  -0.611  -0.611  -0.610  -0.610
 -0.606  -0.603  -0.599  -0.598  -0.593  -0.586  -0.585  -0.582
 -0.581  -0.556  -0.554  -0.553  -0.553  -0.547  -0.539  -0.537
 -0.531  -0.531  -0.531  -0.527  -0.524  -0.519  -0.519  -0.519
 -0.517  -0.514  -0.513  -0.509  -0.504  -0.503  -0.502  -0.500
 -0.500  -0.498  -0.496  -0.495  -0.494  -0.493  -0.493  -0.492
 -0.490  -0.486  -0.485  -0.485  -0.484  -0.479  -0.477  -0.476
 -0.474  -0.474  -0.473  -0.471  -0.471  -0.470  -0.464  -0.461
 -0.457  -0.455  -0.449  -0.447  -0.447  -0.445  -0.441  -0.441
 -0.440  -0.439  -0.438  -0.434  -0.433  -0.433  -0.432  -0.425
 -0.424  -0.423  -0.422  -0.422  -0.419  -0.418  -0.410  -0.410
 -0.409  -0.409  -0.408  -0.406  -0.405  -0.405  -0.403  -0.402
 -0.400  -0.399  -0.395  -0.394  -0.393  -0.391  -0.389  -0.388
 -0.387  -0.385  -0.383  -0.378  -0.373  -0.372  -0.367  -0.367
 -0.364  -0.361  -0.361  -0.360  -0.359  -0.353  -0.351  -0.339
 -0.331  -0.327  -0.306  -0.306  -0.293  -0.292  -0.292  -0.283
 -0.282  -0.278  -0.277  -0.277  -0.276  -0.274  -0.274  -0.270
 -0.269  -0.264  -0.216  -0.216

          Ground-State Mulliken Net Atomic Charges

     Atom                 Charge (a.u.)    Spin (a.u.)
  --------------------------------------------------------
      1 N                    -0.723499      -0.000209
      2 C                     0.312828       0.000061
      3 C                     0.144424       0.000001
      4 C                    -0.208695       0.000000
      5 C                    -0.291644      -0.000002
      6 H                     0.205435       0.000002
      7 C                    -0.227481      -0.000003
      8 H                     0.208732       0.000000
      9 C                    -0.228774      -0.000006
     10 H                     0.204164       0.000002
     11 C                    -0.302192       0.000016
     12 H                     0.246806      -0.000013
     13 C                     0.316099       0.000062
     14 C                    -0.305604       0.000021
     15 H                     0.248176      -0.000016
     16 C                    -0.230221      -0.000006
     17 H                     0.209917       0.000001
     18 C                    -0.228353      -0.000000
     19 H                     0.209098       0.000000
     20 C                    -0.290804      -0.000003
     21 H                     0.205141       0.000001
     22 C                     0.141502      -0.000000
     23 C                     0.186924       0.003602
     24 C                    -0.294114      -0.002934
     25 H                     0.221845       0.000542
     26 C                     0.056211       0.007249
     27 C                    -0.294218      -0.002914
     28 H                     0.220917       0.000517
     29 C                     0.055776       0.007533
     30 C                    -0.200294      -0.036779
     31 C                    -0.541395       0.001511
     32 H                     0.229835       0.000341
     33 H                     0.252393      -0.002178
     34 C                    -0.645842      -0.000340
     35 C                    -0.539751       0.001540
     36 H                     0.228488       0.000377
     37 H                     0.249633      -0.001915
     38 C                    -0.647140      -0.000103
     39 H                     0.241018      -0.000493
     40 H                     0.219907       0.000015
     41 H                     0.216752      -0.000276
     42 B                     0.550291       0.367498
     43 C                    -0.116338      -0.156209
     44 C                    -0.394618       0.064724
     45 H                     0.240417      -0.003171
     46 C                     0.120133      -0.081147
     47 C                     0.096813      -0.084967
     48 C                    -0.387765       0.060795
     49 H                     0.236985      -0.002917
     50 C                    -0.116244      -0.132487
     51 C                     0.202842      -0.007937
     52 C                    -0.380236       0.050893
     53 H                     0.223154      -0.002913
     54 C                    -0.060368      -0.091426
     55 C                     0.252922       0.002581
     56 C                     0.200614      -0.009425
     57 C                    -0.370967       0.047857
     58 H                     0.223092      -0.002700
     59 C                    -0.201755      -0.024514
     60 H                     0.231772       0.001202
     61 C                    -0.335540       0.028518
     62 H                     0.225601      -0.001681
     63 C                    -0.331180       0.023158
     64 H                     0.225749      -0.001381
     65 C                    -0.204147      -0.023484
     66 H                     0.232642       0.001187
     67 C                    -0.115253      -0.154384
     68 C                    -0.399779       0.063937
     69 H                     0.235398      -0.003180
     70 C                     0.120434      -0.079212
     71 C                     0.095773      -0.078149
     72 C                    -0.389003       0.056845
     73 H                     0.235549      -0.002788
     74 C                    -0.114280      -0.126949
     75 C                     0.202504      -0.009112
     76 C                    -0.381168       0.052232
     77 H                     0.223510      -0.002988
     78 C                    -0.060040      -0.088448
     79 C                     0.253933       0.001009
     80 C                     0.200001      -0.011747
     81 C                    -0.370692       0.050384
     82 H                     0.224069      -0.002849
     83 C                    -0.201995      -0.025663
     84 H                     0.231878       0.001258
     85 C                    -0.336428       0.030272
     86 H                     0.225292      -0.001781
     87 C                    -0.331587       0.026014
     88 H                     0.225376      -0.001550
     89 C                    -0.205017      -0.025184
     90 H                     0.232747       0.001268
     91 B                     0.551674       0.357497
     92 C                    -0.210985      -0.035427
     93 C                     0.053723       0.007154
     94 C                    -0.291031      -0.002989
     95 H                     0.221487       0.000519
     96 C                     0.188422       0.003653
     97 C                    -0.290033      -0.003045
     98 H                     0.222293       0.000537
     99 C                     0.054318       0.007128
    100 N                    -0.723005      -0.000234
    101 C                     0.313200       0.000066
    102 C                     0.142897      -0.000014
    103 C                    -0.210927       0.000002
    104 C                    -0.290919       0.000007
    105 H                     0.205351       0.000001
    106 C                    -0.227877      -0.000021
    107 H                     0.208968       0.000001
    108 C                    -0.228753       0.000007
    109 H                     0.205604      -0.000000
    110 C                    -0.301892       0.000003
    111 H                     0.246641      -0.000013
    112 C                     0.317869       0.000067
    113 C                     0.141595      -0.000010
    114 C                    -0.291064       0.000004
    115 H                     0.205265       0.000001
    116 C                    -0.228204      -0.000009
    117 H                     0.209338       0.000001
    118 C                    -0.229907      -0.000002
    119 H                     0.209587       0.000000
    120 C                    -0.306504       0.000015
    121 H                     0.246662      -0.000016
    122 C                    -0.539381       0.002574
    123 H                     0.228482       0.000366
    124 H                     0.253313      -0.002426
    125 C                    -0.644212      -0.000008
    126 C                    -0.542734       0.002626
    127 H                     0.229952       0.000380
    128 H                     0.255534      -0.002748
    129 C                    -0.643668      -0.000087
    130 H                     0.237392      -0.000354
    131 H                     0.217882      -0.000328
    132 H                     0.218749       0.000030
    133 H                     0.234975      -0.000335
    134 H                     0.220169       0.000021
    135 H                     0.217506      -0.000206
    136 H                     0.218358       0.000035
    137 H                     0.241654      -0.000476
    138 H                     0.218011      -0.000442
    139 C                    -0.595877      -0.000001
    140 C                    -0.598056      -0.000001
    141 C                    -0.599086      -0.000000
    142 C                    -0.596016      -0.000000
    143 H                     0.233110       0.000000
    144 H                     0.215587      -0.000000
    145 H                     0.214831       0.000000
    146 H                     0.234185      -0.000000
    147 H                     0.215283      -0.000000
    148 H                     0.215397       0.000000
    149 H                     0.233467       0.000000
    150 H                     0.215152       0.000000
    151 H                     0.214880      -0.000000
    152 H                     0.234077       0.000000
    153 H                     0.215070       0.000000
    154 H                     0.215125      -0.000000
  --------------------------------------------------------
  Sum of atomic charges =    -0.000000

                    Cartesian Multipole Moments
 -----------------------------------------------------------------
    Charge (ESU x 10^10)
                -0.0000
    Dipole Moment (Debye)
         X      -0.0520      Y      -0.6816      Z       0.1749
       Tot       0.7056
    Quadrupole Moments (Debye-Ang)
        XX    -445.7304     XY     -31.0382     YY    -480.2479
        XZ     -25.9526     YZ      23.5850     ZZ    -495.1622

             Standard Nuclear Orientation (Angstroms)
    I     Atom           X                Y                Z
 ----------------------------------------------------------------
    1      N       0.1285165323    -1.1261175716     0.7328825074
    2      C      -0.5801583802    -0.3498313440     1.6424316512
    3      C       0.0832530535     0.5255236318     2.5066856208
    4      C       1.5921489194     0.6836694164     2.5096400943
    5      C      -0.6830113790     1.2822728819     3.3880113900
    6      H      -0.1830843857     1.9696708317     4.0595183029
    7      C      -2.0620613331     1.1965103472     3.4421203760
    8      H      -2.6208607163     1.8026044506     4.1421016638
    9      C      -2.7064005874     0.3204207320     2.5845469630
   10      H      -3.7846918981     0.2258553074     2.6035686092
   11      C      -1.9773442693    -0.4432417083     1.6957058999
   12      H      -2.4983975285    -1.1209975711     1.0347469634
   13      C       1.5156964029    -1.0851006312     0.6601613196
   14      C       2.1898027147    -1.8986536001    -0.2582668510
   15      H       1.6308580435    -2.5565870603    -0.9084333092
   16      C       3.5669227994    -1.8744719602    -0.3489517272
   17      H       4.0603464558    -2.5139171730    -1.0694251940
   18      C       4.3060532996    -1.0395304236     0.4728531509
   19      H       5.3852589716    -1.0106712567     0.4111152709
   20      C       3.6350265059    -0.2378834358     1.3777446707
   21      H       4.2138497842     0.4166608605     2.0177225774
   22      C       2.2491185291    -0.2367474219     1.4953765795
   23      C      -0.5955317947    -1.9519604903    -0.1697757506
   24      C      -0.9105616233    -3.2549118655     0.1731262762
   25      H      -0.5824523008    -3.6442890721     1.1306580119
   26      C      -1.6542163775    -4.0547721788    -0.6897755737
   27      C      -1.0119214307    -1.4445743653    -1.3891612640
   28      H      -0.7581274692    -0.4235627742    -1.6513232708
   29      C      -1.7593296743    -2.2242112767    -2.2636861874
   30      C      -2.0994322325    -3.5428972106    -1.9174977576
   31      C      -2.1584227635    -1.6368165879    -3.5937335265
   32      H      -2.2093498859    -0.5484852021    -3.5083246873
   33      H      -3.1643816686    -1.9624223505    -3.8702902916
   34      C      -1.1860428419    -2.0078778812    -4.7108274582
   35      C      -2.0210120822    -5.4486570942    -0.2468140179
   36      H      -1.2230063206    -5.8514706594     0.3823436854
   37      H      -2.0906082581    -6.1155602538    -1.1094394999
   38      C      -3.3370655471    -5.4876993965     0.5262163461
   39      H      -4.1689236537    -5.1525321664    -0.0931259454
   40      H      -3.5632292350    -6.4997605316     0.8635129302
   41      H      -3.2957484971    -4.8428165089     1.4048587942
   42      B      -3.0321786135    -4.3857388108    -2.8784442110
   43      C      -4.5471988040    -4.1393626547    -2.8581359639
   44      C      -5.1064748340    -3.2376818621    -1.9278980148
   45      H      -4.4512106963    -2.7210523485    -1.2363743961
   46      C      -6.4585013844    -3.0209135124    -1.8955404680
   47      C      -7.3240374804    -3.7152339011    -2.8291039580
   48      C      -6.8060188940    -4.5839911609    -3.7505585599
   49      H      -7.4580554101    -5.0914766700    -4.4524125443
   50      C      -5.4251220215    -4.8279519280    -3.7960203503
   51      C      -7.3037175852    -2.1838272487    -1.0594287851
   52      C      -7.0951032222    -1.3107989144    -0.0203171640
   53      H      -6.1034146197    -1.1047157464     0.3614745018
   54      C      -8.6293077398    -2.3949134692    -1.4984679264
   55      C      -9.7512552427    -1.7798881318    -0.9469507135
   56      C      -8.6881015710    -3.3123519065    -2.5681499716
   57      C      -9.9117791303    -3.6282607188    -3.1095627460
   58      H     -10.0098185988    -4.3254139598    -3.9322411479
   59      C      -8.2140962884    -0.6711847036     0.5558034731
   60      H      -8.0490796705     0.0170506390     1.3741351976
   61      C      -9.5029865584    -0.8875527284     0.1210136089
   62      H     -10.3267998635    -0.3719982120     0.5988151580
   63      C     -10.9980996232    -2.1233830192    -1.5213490223
   64      H     -11.9096709378    -1.6816897265    -1.1381495890
   65      C     -11.0609006198    -3.0183564160    -2.5673522380
   66      H     -12.0266480342    -3.2640775571    -2.9894140031
   67      C      -2.4789040868    -5.4264542958    -3.8587951389
   68      C      -1.1020436941    -5.7374761510    -3.8679341371
   69      H      -0.4442684163    -5.2272503362    -3.1733862976
   70      C      -0.6046740272    -6.6729567882    -4.7374340323
   71      C      -1.4957771720    -7.3376678215    -5.6681958330
   72      C      -2.8314706166    -7.0413262431    -5.6927776654
   73      H      -3.4911415846    -7.5365027094    -6.3963754292
   74      C      -3.3664531934    -6.1007112164    -4.7996834254
   75      C       0.7292045197    -7.2098018086    -4.9566494777
   76      C       1.9690599614    -7.0046066701    -4.4043348935
   77      H       2.1282524552    -6.2879935747    -3.6091797933
   78      C       0.6077064713    -8.1671303235    -5.9880599416
   79      C       1.6604191083    -8.9288745410    -6.4884482806
   80      C      -0.7211216060    -8.2747561636    -6.4480591242
   81      C      -1.0139775661    -9.1730526818    -7.4460183717
   82      H      -2.0195576014    -9.2938733984    -7.8288935526
   83      C       3.0559605102    -7.7600203422    -4.8951500023
   84      H       4.0329642260    -7.5984704554    -4.4593600653
   85      C       2.9240534805    -8.6930597434    -5.8997757114
   86      H       3.7909211594    -9.2476129157    -6.2367032892
   87      C       1.3333398144    -9.8452292944    -7.5160548001
   88      H       2.1053459613   -10.4689386270    -7.9493131368
   89      C       0.0363429534    -9.9528480207    -7.9697129449
   90      H      -0.1865171740   -10.6632288379    -8.7550710119
   91      B      -4.8661854968    -5.8053346867    -4.8307071351
   92      C      -5.8171491474    -6.4697642739    -5.9079099984
   93      C      -6.1891332340    -5.7456503421    -7.0536493102
   94      C      -7.0491909188    -6.3088129286    -7.9888385668
   95      H      -7.3485972574    -5.7460725639    -8.8661955994
   96      C      -7.5371234679    -7.5914608120    -7.8133003738
   97      C      -7.1655421318    -8.3209898396    -6.6988587968
   98      H      -7.5582088604    -9.3240123253    -6.5711834766
   99      C      -6.3188458867    -7.7704043198    -5.7425088787
  100      N      -8.4438298517    -8.1454022701    -8.7581712207
  101      C      -9.8075960435    -7.9841247776    -8.5470291708
  102      C     -10.7371293870    -8.4879101783    -9.4628201697
  103      C     -10.3302710632    -9.2249898004   -10.7277456641
  104      C     -12.0898531278    -8.2950177279    -9.2016102087
  105      H     -12.8180536576    -8.6795116435    -9.9052170988
  106      C     -12.5465473278    -7.6289707100    -8.0800183193
  107      H     -13.6073115490    -7.4995357251    -7.9137376903
  108      C     -11.6167220249    -7.1343154196    -7.1807528273
  109      H     -11.9396779786    -6.6088157447    -6.2912395273
  110      C     -10.2661067987    -7.3078791724    -7.4089350885
  111      H      -9.5583903065    -6.9137330218    -6.6941087780
  112      C      -7.9507112770    -8.8184943253    -9.8691092707
  113      C      -8.8192441104    -9.3503367781   -10.8282994507
  114      C      -8.2667510222   -10.0123806550   -11.9199170767
  115      H      -8.9283212009   -10.4277880820   -12.6704947635
  116      C      -6.9030055659   -10.1624736601   -12.0896918037
  117      H      -6.5132328582   -10.6827297954   -12.9540099254
  118      C      -6.0538766747    -9.6319034034   -11.1327866085
  119      H      -4.9809955434    -9.7300132370   -11.2359923240
  120      C      -6.5688828656    -8.9690898342   -10.0365575879
  121      H      -5.8902412182    -8.5599976806    -9.3019612529
  122      C      -6.0239087200    -8.5808294543    -4.5075413358
  123      H      -5.9298508363    -9.6360894839    -4.7774197909
  124      H      -5.0633985443    -8.2899816028    -4.0774030985
  125      C      -7.1195885929    -8.4255634450    -3.4551312316
  126      C      -5.6317191483    -4.3758510112    -7.3374211408
  127      H      -6.3788560317    -3.7801379838    -7.8682182415
  128      H      -5.4273129845    -3.8447115360    -6.4053689707
  129      C      -4.3553926705    -4.4470473903    -8.1720724228
  130      H      -3.5779131464    -5.0064599694    -7.6514464012
  131      H      -4.5372575972    -4.9432367536    -9.1264186796
  132      H      -3.9649166231    -3.4505831712    -8.3810020046
  133      H      -7.2015599921    -7.3896185068    -3.1248901961
  134      H      -6.9132038169    -9.0384024487    -2.5771391879
  135      H      -8.0904181309    -8.7251372139    -3.8524953075
  136      H      -1.4853967769    -1.5529297625    -5.6557073530
  137      H      -1.1494562939    -3.0866901149    -4.8613862314
  138      H      -0.1752691794    -1.6699099600    -4.4801951022
  139      C     -10.8515352773    -8.4479893110   -11.9498619115
  140      C     -10.9540546067   -10.6312808135   -10.7123967148
  141      C       2.1214688699     0.3411340376     3.9123285895
  142      C       1.9361934614     2.1394106447     2.1552154318
  143      H       1.5561511926     2.3935919644     1.1657540543
  144      H       3.0142089414     2.3033141329     2.1530444077
  145      H       1.4996314103     2.8367668533     2.8710007764
  146      H       1.8842233453    -0.6907189627     4.1713728848
  147      H       1.6805976495     0.9863585819     4.6727478823
  148      H       3.2033240519     0.4618078147     3.9731294511
  149      H     -10.4169359530    -7.4494800243   -11.9910218141
  150      H     -11.9365184720    -8.3397302092   -11.9181837913
  151      H     -10.6039543677    -8.9600324965   -12.8805455717
  152      H     -10.6002976724   -11.2046779001    -9.8560506421
  153      H     -10.7032951098   -11.1890271598   -11.6153922967
  154      H     -12.0421078402   -10.5829604179   -10.6567252287
 ----------------------------------------------------------------
