 Q-Chem 5.1, Q-Chem, Inc., Pleasanton, CA (2018)
 Q-Chem 5.1.1 for Intel X86 EM64T Linux

User input:
--------------------------------------------------------------
$rem
threads 8
jobtype	sp
method PBEh-3c
basis def2-mSVP
mem_static	1024
mem_total	8000
sym_ignore	true
unrestricted true
scf_convergence	9
solvent_method	pcm
$end

$molecule
read incoords.mol
$end

$solvent
dielectric	2.03
$end

$pcm
theory iefpcm
$end
--------------------------------------------------------------

   16   -3317.8009395440      7.19e-10  Convergence criterion met
 Total energy in the final basis set =    -3317.8009395440
 Total job time:  6069.19s(wall), 44117.54s(cpu)
        *  Thank you very much for using Q-Chem.  Have a nice day.  *
 Q-Chem 5.1, Q-Chem, Inc., Pleasanton, CA (2018)
 Q-Chem 5.1.1 for Intel X86 EM64T Linux

User input:
--------------------------------------------------------------

$rem
threads 8
jobtype opt
method PBEh-3c
basis def2-mSVP
scf_guess	read
mem_static      1024
mem_total       8000
sym_ignore      true
unrestricted true
mom_start       1
scf_algorithm	diis
scf_max_cycles	250
solvent_method	pcm
geom_opt_tol_energy 25
geom_opt_tol_gradient 75
$end

$solvent
dielectric      2.03
$end
$pcm
theory iefpcm
$end

$occupied
1 2 3 4 5 6 7 8 9 10 11 12 13 14 15 16 17 18 19 20 21 22 23 24 25 26 27 28 29 30 31 32 33 34 35 36 37 38 39 40 41 42 43 44 45 46 47 48 49 50 51 52 53 54 55 56 57 58 59 60 61 62 63 64 65 66 67 68 69 70 71 72 73 74 75 76 77 78 79 80 81 82 83 84 85 86 87 88 89 90 91 92 93 94 95 96 97 98 99 100 101 102 103 104 105 106 107 108 109 110 111 112 113 114 115 116 117 118 119 120 121 122 123 124 125 126 127 128 129 130 131 132 133 134 135 136 137 138 139 140 141 142 143 144 145 146 147 148 149 150 151 152 153 154 155 156 157 158 159 160 161 162 163 164 165 166 167 168 169 170 171 172 173 174 175 176 177 178 179 180 181 182 183 184 185 186 187 188 189 190 191 192 193 194 195 196 197 198 199 200 201 202 203 204 205 206 207 208 209 210 211 212 213 214 215 216 217 218 219 220 221 222 223 224 225 226 227 228 229 230 231 232 233 234 235 236 237 238 239 240 241 242 243 244 245 246 247 248 249 250 251 252 253 254 255 256 257 258 259 260 261 262 263 264 265 266 267 268 269 270 271 272 273 274 275 276 277 278 279 280 281 282 283 284 285 286 287 288 289 290 291  293
1 2 3 4 5 6 7 8 9 10 11 12 13 14 15 16 17 18 19 20 21 22 23 24 25 26 27 28 29 30 31 32 33 34 35 36 37 38 39 40 41 42 43 44 45 46 47 48 49 50 51 52 53 54 55 56 57 58 59 60 61 62 63 64 65 66 67 68 69 70 71 72 73 74 75 76 77 78 79 80 81 82 83 84 85 86 87 88 89 90 91 92 93 94 95 96 97 98 99 100 101 102 103 104 105 106 107 108 109 110 111 112 113 114 115 116 117 118 119 120 121 122 123 124 125 126 127 128 129 130 131 132 133 134 135 136 137 138 139 140 141 142 143 144 145 146 147 148 149 150 151 152 153 154 155 156 157 158 159 160 161 162 163 164 165 166 167 168 169 170 171 172 173 174 175 176 177 178 179 180 181 182 183 184 185 186 187 188 189 190 191 192 193 194 195 196 197 198 199 200 201 202 203 204 205 206 207 208 209 210 211 212 213 214 215 216 217 218 219 220 221 222 223 224 225 226 227 228 229 230 231 232 233 234 235 236 237 238 239 240 241 242 243 244 245 246 247 248 249 250 251 252 253 254 255 256 257 258 259 260 261 262 263 264 265 266 267 268 269 270 271 272 273 274 275 276 277 278 279 280 281 282 283 284 285 286 287 288 289 290 291 292
$end

$molecule
read
$end

--------------------------------------------------------------

   20   -3317.7246768468      7.05E-09 Convergence criterion met
 Total energy in the final basis set = -3317.72467685
   14   -3317.7248020803      9.92E-09 Convergence criterion met
 Total energy in the final basis set = -3317.72480208
   16   -3317.7244673898      6.65E-09 Convergence criterion met
 Total energy in the final basis set = -3317.72446739
   14   -3317.7248921070      9.53E-09 Convergence criterion met
 Total energy in the final basis set = -3317.72489211
   14   -3317.7249045654      8.82E-09 Convergence criterion met
 Total energy in the final basis set = -3317.72490457
   14   -3317.7245905620      8.30E-09 Convergence criterion met
 Total energy in the final basis set = -3317.72459056
   14   -3317.7250372273      8.76E-09 Convergence criterion met
   14   -3317.7250727925      9.22E-09 Convergence criterion met
 Total energy in the final basis set = -3317.72507279
   14   -3317.7250811989      9.21E-09 Convergence criterion met
 Total energy in the final basis set = -3317.72508120
   14   -3317.7250917130      9.21E-09 Convergence criterion met
 Total energy in the final basis set = -3317.72509171
   14   -3317.7250979742      9.16E-09 Convergence criterion met
 Total energy in the final basis set = -3317.72509797
   14   -3317.7251048989      9.14E-09 Convergence criterion met
 Total energy in the final basis set = -3317.72510490
   14   -3317.7251043595      9.20E-09 Convergence criterion met
 Total energy in the final basis set = -3317.72510436

             Standard Nuclear Orientation (Angstroms)
    I     Atom           X                Y                Z
 ----------------------------------------------------------------
    1      N       0.1102455182    -1.1546379244     0.7289020467
    2      C      -0.6002433388    -0.3741104880     1.6320463360
    3      C       0.0600637590     0.5023256680     2.4987825988
    4      C       1.5691737414     0.6597230222     2.5075097145
    5      C      -0.7090634683     1.2627821384     3.3752626580
    6      H      -0.2109728785     1.9505112087     4.0481068307
    7      C      -2.0892333247     1.1804637510     3.4215315771
    8      H      -2.6509272091     1.7892433831     4.1172763884
    9      C      -2.7313246766     0.3047579147     2.5603222956
   10      H      -3.8100910552     0.2133209345     2.5708178250
   11      C      -1.9990392999    -0.4626668425     1.6769187748
   12      H      -2.5191322682    -1.1387048775     1.0132962779
   13      C       1.4963511761    -1.1156454932     0.6636202219
   14      C       2.1742214330    -1.9358950810    -0.2475148569
   15      H       1.6174181223    -2.5971803110    -0.8963400439
   16      C       3.5521346435    -1.9145627781    -0.3321217506
   17      H       4.0466579226    -2.5598277041    -1.0468414486
   18      C       4.2896473913    -1.0758193340     0.4887975468
   19      H       5.3694228238    -1.0490778390     0.4314510917
   20      C       3.6157244849    -0.2683380048     1.3873626255
   21      H       4.1926851449     0.3885167099     2.0269661799
   22      C       2.2288667191    -0.2649357741     1.4988489839
   23      C      -0.6120518956    -1.9814952384    -0.1779853298
   24      C      -0.9368631123    -3.2811973108     0.1680948353
   25      H      -0.6181108215    -3.6706856733     1.1291540002
   26      C      -1.6801365054    -4.0789477206    -0.6979709277
   27      C      -1.0159521799    -1.4760307036    -1.4023394757
   28      H      -0.7557642805    -0.4571218690    -1.6681187855
   29      C      -1.7620567180    -2.2559224259    -2.2784732145
   30      C      -2.1161173750    -3.5705218332    -1.9302537761
   31      C      -2.1477749965    -1.6724779278    -3.6140584660
   32      H      -2.2085725291    -0.5841390611    -3.5303565828
   33      H      -3.1459729164    -2.0110499617    -3.9011884782
   34      C      -1.1564540289    -2.0382096320    -4.7168842936
   35      C      -2.0568464722    -5.4700683672    -0.2549434595
   36      H      -1.2617054456    -5.8787381302     0.3746255983
   37      H      -2.1314776453    -6.1325539178    -1.1202176514
   38      C      -3.3744443452    -5.4984514778     0.5165037628
   39      H      -4.1997982166    -5.1512814466    -0.1046660521
   40      H      -3.6111213757    -6.5103839673     0.8483933964
   41      H      -3.3278591458    -4.8582082938     1.3987735607
   42      B      -3.0552041469    -4.4116893429    -2.8939307071
   43      C      -4.5726198064    -4.1452690927    -2.8636505591
   44      C      -5.1287433357    -3.2346297462    -1.9386533939
   45      H      -4.4722242184    -2.7194733990    -1.2451609136
   46      C      -6.4826731012    -2.9983450688    -1.9051380478
   47      C      -7.3393215422    -3.6757047390    -2.8223334258
   48      C      -6.8216228770    -4.5540854547    -3.7370509773
   49      H      -7.4845984009    -5.0573241722    -4.4346788378
   50      C      -5.4381386021    -4.8162040857    -3.7821962605
   51      C      -7.3218951093    -2.1413089198    -1.0666096787
   52      C      -7.1079724523    -1.2662808904    -0.0307183631
   53      H      -6.1147777701    -1.0702136085     0.3540433501
   54      C      -8.6503921784    -2.3344918575    -1.5036218348
   55      C      -9.7655028473    -1.7033171036    -0.9572799830
   56      C      -8.7125638313    -3.2562014618    -2.5674491641
   57      C      -9.9399720104    -3.5583587416    -3.1055547949
   58      H     -10.0464415255    -4.2598464878    -3.9246200453
   59      C      -8.2214439580    -0.6076214912     0.5426843842
   60      H      -8.0460465912     0.0816931525     1.3589337708
   61      C      -9.5121134736    -0.8071273707     0.1088697815
   62      H     -10.3315185412    -0.2796595240     0.5821100934
   63      C     -11.0193366631    -2.0323657174    -1.5297277542
   64      H     -11.9255232389    -1.5768362171    -1.1487790344
   65      C     -11.0876692313    -2.9317755980    -2.5693932044
   66      H     -12.0555189539    -3.1704747639    -2.9931618918
   67      C      -2.4925597957    -5.4509231879    -3.8791247094
   68      C      -1.1147382781    -5.7608001716    -3.9020170987
   69      H      -0.4498079457    -5.2532294920    -3.2102385219
   70      C      -0.6131865480    -6.6929256294    -4.7808572524
   71      C      -1.4953425002    -7.3481310670    -5.6904507068
   72      C      -2.8331216300    -7.0531243213    -5.6968909847
   73      H      -3.4925735587    -7.5555825517    -6.3983646293
   74      C      -3.3690534721    -6.1109447161    -4.7971165698
   75      C       0.7313947605    -7.2231267850    -5.0123288055
   76      C       1.9761600434    -7.0140481355    -4.4734346011
   77      H       2.1401009327    -6.2993577413    -3.6767570095
   78      C       0.6112473540    -8.1779702771    -6.0456635757
   79      C       1.6637638087    -8.9306943474    -6.5591352144
   80      C      -0.7214321762    -8.2885654331    -6.4889790525
   81      C      -1.0146915864    -9.1863434925    -7.4859363845
   82      H      -2.0239097384    -9.3147450373    -7.8590154438
   83      C       3.0668424028    -7.7610650069    -4.9778372829
   84      H       4.0462960708    -7.5921308471    -4.5485762877
   85      C       2.9350113667    -8.6910666238    -5.9838018668
   86      H       3.8018000365    -9.2393354053    -6.3322803458
   87      C       1.3364013471    -9.8484338757    -7.5880804961
   88      H       2.1096590859   -10.4653313357    -8.0298399049
   89      C       0.0361174565    -9.9610628353    -8.0260200837
   90      H      -0.1927362936   -10.6712697518    -8.8111222797
   91      B      -4.8655274334    -5.7986852511    -4.8037062150
   92      C      -5.8228652413    -6.4620256636    -5.8887005374
   93      C      -6.1842348514    -5.7366338229    -7.0384411400
   94      C      -7.0382358938    -6.2925750969    -7.9846107464
   95      H      -7.3275969610    -5.7298849222    -8.8654684803
   96      C      -7.5202927154    -7.5712289869    -7.7886525674
   97      C      -7.1780726799    -8.3156079331    -6.6782737073
   98      H      -7.5763440147    -9.3162567056    -6.5492911073
   99      C      -6.3309155696    -7.7615410149    -5.7236543949
  100      N      -8.4329942000    -8.1308729447    -8.7514629153
  101      C      -9.7823188992    -7.9953148449    -8.5226633325
  102      C     -10.7121753263    -8.5298416817    -9.4354424852
  103      C     -10.2940295495    -9.2548933307   -10.6907884897
  104      C     -12.0604476850    -8.3676312385    -9.1522630855
  105      H     -12.8000504908    -8.7678285189    -9.8329560464
  106      C     -12.4939434950    -7.7010287823    -8.0190326521
  107      H     -13.5535294408    -7.5929368995    -7.8316330932
  108      C     -11.5656056936    -7.1687749304    -7.1269938481
  109      H     -11.8954556218    -6.6427932894    -6.2421905655
  110      C     -10.2223802236    -7.3099423172    -7.3707535043
  111      H      -9.5072603349    -6.8925987750    -6.6780563249
  112      C      -7.9241577617    -8.7702471163    -9.8576232208
  113      C      -8.7924676309    -9.3188503770   -10.8216233800
  114      C      -8.2218535378    -9.9427824122   -11.9209396421
  115      H      -8.8605077486   -10.3739307829   -12.6802394274
  116      C      -6.8490777019   -10.0338494325   -12.0783283848
  117      H      -6.4403347353   -10.5265835293   -12.9499289322
  118      C      -5.9999168950    -9.4944038584   -11.1146118594
  119      H      -4.9273865295    -9.5645986837   -11.2283355847
  120      C      -6.5261781854    -8.8687265207   -10.0121039767
  121      H      -5.8665851481    -8.4516275056    -9.2658852045
  122      C      -6.0383942874    -8.5696810825    -4.4883956152
  123      H      -5.9678460486    -9.6286680170    -4.7513820530
  124      H      -5.0688747599    -8.2870275836    -4.0767318640
  125      C      -7.1193715080    -8.3786890133    -3.4265238552
  126      C      -5.6215403635    -4.3690781252    -7.3156735418
  127      H      -6.3605568294    -3.7706935425    -7.8553251923
  128      H      -5.4266906306    -3.8483605148    -6.3774184483
  129      C      -4.3337533295    -4.4491550592    -8.1322706269
  130      H      -3.5702727623    -5.0153194132    -7.5995727553
  131      H      -4.5034054461    -4.9350032038    -9.0951402921
  132      H      -3.9342001701    -3.4534854045    -8.3254049825
  133      H      -7.1759748447    -7.3367109227    -3.1119146395
  134      H      -6.9072678898    -8.9807272598    -2.5428568299
  135      H      -8.1014132378    -8.6711654026    -3.8034806506
  136      H      -1.4496386895    -1.5909570616    -5.6679667821
  137      H      -1.1091002217    -3.1174641867    -4.8594431988
  138      H      -0.1519505836    -1.6875407213    -4.4759613473
  139      C     -10.8753687607    -8.5130313444   -11.9122560560
  140      C     -10.8500266463   -10.6931753502   -10.6444071175
  141      C       2.0937831334     0.3227591660     3.9134587673
  142      C       1.9158689371     2.1141931311     2.1499779040
  143      H       1.5386452809     2.3661252079     1.1586288119
  144      H       2.9943915283     2.2760160713     2.1510724653
  145      H       1.4777272821     2.8130311736     2.8635253305
  146      H       1.8553801514    -0.7082061463     4.1758643189
  147      H       1.6500928379     0.9718180308     4.6691106506
  148      H       3.1755649327     0.4442559313     3.9768909302
  149      H     -10.4918329901    -7.4954835408   -11.9779438029
  150      H     -11.9619614886    -8.4628079218   -11.8537455387
  151      H     -10.6249658836    -9.0309768319   -12.8373263697
  152      H     -10.4533740863   -11.2437583779    -9.7921331173
  153      H     -10.5911068872   -11.2395291070   -11.5506528201
  154      H     -11.9366186345   -10.6877009594   -10.5674987650
 ----------------------------------------------------------------

   14   -3317.7251042745      9.42E-09 Convergence criterion met
 Total energy in the final basis set = -3317.72510427
 Final energy is   -3317.72510427450
 **  OPTIMIZATION CONVERGED  **

                    Orbital Energies (a.u.)
 --------------------------------------------------------------

 Alpha MOs
 -- Occupied --
-14.788 -14.659 -10.560 -10.560 -10.523 -10.520 -10.520 -10.515
-10.501 -10.501 -10.500 -10.500 -10.499 -10.498 -10.496 -10.495
-10.478 -10.478 -10.469 -10.469 -10.466 -10.465 -10.463 -10.463
-10.461 -10.455 -10.445 -10.445 -10.444 -10.443 -10.443 -10.442
-10.441 -10.441 -10.440 -10.440 -10.439 -10.439 -10.439 -10.439
-10.439 -10.439 -10.439 -10.438 -10.437 -10.437 -10.434 -10.433
-10.432 -10.431 -10.430 -10.430 -10.429 -10.429 -10.429 -10.428
-10.428 -10.428 -10.427 -10.427 -10.426 -10.424 -10.424 -10.424
-10.423 -10.423 -10.423 -10.422 -10.421 -10.420 -10.420 -10.419
-10.417 -10.413 -10.413 -10.412 -10.411 -10.403 -10.400 -10.399
-10.397 -10.396 -10.396 -10.395  -6.891  -6.890  -1.164  -1.071
 -1.021  -1.019  -0.991  -0.991  -0.977  -0.964  -0.953  -0.944
 -0.934  -0.931  -0.929  -0.913  -0.912  -0.912  -0.898  -0.895
 -0.895  -0.894  -0.878  -0.871  -0.871  -0.868  -0.847  -0.845
 -0.836  -0.828  -0.827  -0.826  -0.826  -0.821  -0.816  -0.814
 -0.811  -0.803  -0.801  -0.793  -0.789  -0.787  -0.782  -0.775
 -0.774  -0.772  -0.770  -0.757  -0.735  -0.726  -0.723  -0.710
 -0.708  -0.706  -0.705  -0.703  -0.695  -0.693  -0.692  -0.685
 -0.680  -0.677  -0.670  -0.670  -0.666  -0.655  -0.655  -0.650
 -0.641  -0.638  -0.623  -0.619  -0.618  -0.618  -0.611  -0.602
 -0.601  -0.593  -0.586  -0.581  -0.580  -0.575  -0.574  -0.572
 -0.569  -0.568  -0.565  -0.560  -0.552  -0.551  -0.551  -0.544
 -0.540  -0.537  -0.536  -0.534  -0.528  -0.527  -0.522  -0.519
 -0.516  -0.510  -0.507  -0.505  -0.504  -0.502  -0.500  -0.496
 -0.495  -0.493  -0.488  -0.485  -0.483  -0.482  -0.482  -0.481
 -0.477  -0.477  -0.474  -0.474  -0.472  -0.471  -0.470  -0.466
 -0.466  -0.465  -0.465  -0.464  -0.462  -0.462  -0.462  -0.461
 -0.461  -0.458  -0.456  -0.454  -0.452  -0.445  -0.442  -0.441
 -0.440  -0.436  -0.434  -0.432  -0.431  -0.430  -0.429  -0.424
 -0.420  -0.418  -0.417  -0.415  -0.414  -0.414  -0.410  -0.409
 -0.408  -0.405  -0.402  -0.402  -0.401  -0.400  -0.392  -0.391
 -0.388  -0.386  -0.384  -0.383  -0.377  -0.377  -0.376  -0.373
 -0.373  -0.371  -0.370  -0.370  -0.367  -0.364  -0.358  -0.357
 -0.352  -0.348  -0.346  -0.345  -0.341  -0.336  -0.336  -0.335
 -0.323  -0.318  -0.309  -0.297  -0.295  -0.291  -0.287  -0.284
 -0.279  -0.277  -0.275  -0.270  -0.261  -0.256  -0.254  -0.243
 -0.233  -0.228  -0.207  -0.138

 Beta MOs
 -- Occupied --
-14.800 -14.659 -10.559 -10.559 -10.523 -10.523 -10.523 -10.515
-10.504 -10.504 -10.504 -10.504 -10.497 -10.496 -10.494 -10.494
-10.478 -10.478 -10.470 -10.470 -10.466 -10.466 -10.463 -10.463
-10.461 -10.455 -10.446 -10.445 -10.444 -10.443 -10.442 -10.441
-10.441 -10.440 -10.440 -10.440 -10.440 -10.440 -10.440 -10.440
-10.438 -10.438 -10.438 -10.438 -10.437 -10.437 -10.434 -10.433
-10.432 -10.431 -10.430 -10.430 -10.429 -10.429 -10.429 -10.427
-10.427 -10.427 -10.427 -10.426 -10.426 -10.424 -10.424 -10.424
-10.423 -10.423 -10.423 -10.423 -10.422 -10.420 -10.420 -10.419
-10.417 -10.413 -10.413 -10.412 -10.411 -10.403 -10.400 -10.399
-10.396 -10.396 -10.395 -10.395  -6.888  -6.887  -1.183  -1.071
 -1.026  -1.023  -0.991  -0.990  -0.979  -0.967  -0.953  -0.944
 -0.933  -0.930  -0.929  -0.916  -0.912  -0.911  -0.898  -0.897
 -0.896  -0.895  -0.877  -0.874  -0.870  -0.868  -0.851  -0.847
 -0.836  -0.827  -0.826  -0.825  -0.825  -0.821  -0.818  -0.815
 -0.813  -0.802  -0.801  -0.790  -0.788  -0.786  -0.782  -0.778
 -0.775  -0.773  -0.770  -0.757  -0.737  -0.728  -0.725  -0.709
 -0.707  -0.706  -0.703  -0.703  -0.695  -0.693  -0.692  -0.685
 -0.682  -0.679  -0.673  -0.670  -0.665  -0.655  -0.655  -0.647
 -0.644  -0.636  -0.624  -0.620  -0.618  -0.618  -0.610  -0.602
 -0.601  -0.597  -0.592  -0.588  -0.581  -0.581  -0.573  -0.571
 -0.569  -0.567  -0.564  -0.560  -0.552  -0.551  -0.550  -0.548
 -0.544  -0.537  -0.535  -0.535  -0.528  -0.528  -0.522  -0.518
 -0.516  -0.515  -0.510  -0.507  -0.504  -0.504  -0.502  -0.501
 -0.496  -0.492  -0.489  -0.485  -0.483  -0.483  -0.481  -0.481
 -0.478  -0.476  -0.475  -0.474  -0.472  -0.471  -0.470  -0.469
 -0.466  -0.466  -0.465  -0.464  -0.464  -0.462  -0.461  -0.460
 -0.460  -0.458  -0.456  -0.454  -0.452  -0.450  -0.444  -0.442
 -0.440  -0.438  -0.434  -0.434  -0.432  -0.431  -0.429  -0.429
 -0.424  -0.420  -0.419  -0.414  -0.414  -0.414  -0.409  -0.408
 -0.407  -0.405  -0.402  -0.400  -0.399  -0.398  -0.392  -0.391
 -0.387  -0.386  -0.384  -0.382  -0.377  -0.374  -0.374  -0.373
 -0.373  -0.371  -0.370  -0.369  -0.366  -0.363  -0.359  -0.358
 -0.357  -0.352  -0.349  -0.346  -0.344  -0.341  -0.336  -0.334
 -0.322  -0.317  -0.308  -0.303  -0.295  -0.291  -0.287  -0.286
 -0.284  -0.275  -0.275  -0.275  -0.270  -0.256  -0.254  -0.248
 -0.236  -0.230  -0.221  -0.207

          Ground-State Mulliken Net Atomic Charges

     Atom                 Charge (a.u.)    Spin (a.u.)
  --------------------------------------------------------
      1 N                    -0.719327      -0.000121
      2 C                     0.309388       0.000037
      3 C                     0.137352       0.000001
      4 C                    -0.202205       0.000000
      5 C                    -0.302457      -0.000001
      6 H                     0.215040       0.000001
      7 C                    -0.243752      -0.000001
      8 H                     0.217941       0.000000
      9 C                    -0.243675      -0.000007
     10 H                     0.222500       0.000003
     11 C                    -0.314724       0.000011
     12 H                     0.264043      -0.000008
     13 C                     0.313226       0.000037
     14 C                    -0.317447       0.000012
     15 H                     0.263067      -0.000009
     16 C                    -0.243954      -0.000004
     17 H                     0.224532       0.000000
     18 C                    -0.244565      -0.000000
     19 H                     0.218008       0.000000
     20 C                    -0.301645      -0.000002
     21 H                     0.214887       0.000001
     22 C                     0.134176       0.000000
     23 C                     0.183994       0.002127
     24 C                    -0.303869      -0.001744
     25 H                     0.224383       0.000411
     26 C                     0.047433       0.004381
     27 C                    -0.303789      -0.001819
     28 H                     0.223104       0.000395
     29 C                     0.045117       0.004817
     30 C                    -0.181708      -0.027246
     31 C                    -0.543386       0.002932
     32 H                     0.224964       0.000425
     33 H                     0.261213      -0.002158
     34 C                    -0.654060       0.000050
     35 C                    -0.541812       0.002456
     36 H                     0.224256       0.000419
     37 H                     0.257903      -0.001654
     38 C                    -0.655094       0.000037
     39 H                     0.251966      -0.000390
     40 H                     0.214556      -0.000011
     41 H                     0.211895      -0.000075
     42 B                     0.541914       0.286558
     43 C                    -0.143267       0.057907
     44 C                    -0.405266      -0.054870
     45 H                     0.223087       0.002069
     46 C                     0.091348       0.086461
     47 C                     0.071185       0.045551
     48 C                    -0.401299      -0.023437
     49 H                     0.192297       0.000300
     50 C                    -0.130019       0.014761
     51 C                     0.189397      -0.054938
     52 C                    -0.403675       0.083952
     53 H                     0.223455      -0.004966
     54 C                    -0.079199       0.023534
     55 C                     0.240060      -0.038517
     56 C                     0.189362      -0.045123
     57 C                    -0.396753       0.072307
     58 H                     0.200159      -0.004353
     59 C                    -0.212106      -0.052385
     60 H                     0.228157       0.002557
     61 C                    -0.357068       0.077071
     62 H                     0.221985      -0.004593
     63 C                    -0.353041       0.068201
     64 H                     0.221648      -0.004035
     65 C                    -0.214263      -0.047247
     66 H                     0.219246       0.002351
     67 C                    -0.139877       0.056766
     68 C                    -0.410703      -0.054211
     69 H                     0.219325       0.002027
     70 C                     0.091328       0.085993
     71 C                     0.070396       0.048033
     72 C                    -0.402057      -0.025061
     73 H                     0.194131       0.000385
     74 C                    -0.127195       0.016685
     75 C                     0.188413      -0.055362
     76 C                    -0.404294       0.084691
     77 H                     0.224520      -0.004994
     78 C                    -0.078438       0.023860
     79 C                     0.240728      -0.039096
     80 C                     0.188455      -0.046387
     81 C                    -0.396811       0.074031
     82 H                     0.204413      -0.004445
     83 C                    -0.212669      -0.052988
     84 H                     0.228505       0.002586
     85 C                    -0.357673       0.077853
     86 H                     0.221845      -0.004638
     87 C                    -0.353065       0.069886
     88 H                     0.221359      -0.004138
     89 C                    -0.215526      -0.048272
     90 H                     0.220494       0.002398
     91 B                     0.509514       0.338167
     92 C                    -0.160242      -0.032313
     93 C                     0.033920       0.008085
     94 C                    -0.289698      -0.020075
     95 H                     0.237734       0.001254
     96 C                     0.122531       0.035491
     97 C                    -0.287106      -0.019900
     98 H                     0.237719       0.001242
     99 C                     0.038255       0.007766
    100 N                    -0.603534      -0.449573
    101 C                     0.291901       0.103073
    102 C                     0.192049      -0.232170
    103 C                    -0.240144       0.038741
    104 C                    -0.300798       0.151213
    105 H                     0.252692      -0.007162
    106 C                    -0.198777      -0.251821
    107 H                     0.267560       0.013523
    108 C                    -0.239038       0.132823
    109 H                     0.270455      -0.006044
    110 C                    -0.260647      -0.184508
    111 H                     0.314551       0.009925
    112 C                     0.296763       0.103131
    113 C                     0.191385      -0.231723
    114 C                    -0.300892       0.151071
    115 H                     0.252794      -0.007162
    116 C                    -0.199094      -0.251952
    117 H                     0.267599       0.013542
    118 C                    -0.239506       0.133166
    119 H                     0.271542      -0.006052
    120 C                    -0.265168      -0.184871
    121 H                     0.314063       0.009924
    122 C                    -0.542494       0.001962
    123 H                     0.224792       0.000626
    124 H                     0.282369      -0.002225
    125 C                    -0.654076      -0.000050
    126 C                    -0.546315       0.002306
    127 H                     0.225151       0.000671
    128 H                     0.285618      -0.002762
    129 C                    -0.653672      -0.000010
    130 H                     0.260965      -0.000383
    131 H                     0.199112      -0.000111
    132 H                     0.229088      -0.000061
    133 H                     0.258050      -0.000314
    134 H                     0.230478      -0.000067
    135 H                     0.198685      -0.000090
    136 H                     0.211701      -0.000005
    137 H                     0.253012      -0.000450
    138 H                     0.212612      -0.000094
    139 C                    -0.605746      -0.021976
    140 C                    -0.605347      -0.022435
    141 C                    -0.609388      -0.000000
    142 C                    -0.605902       0.000000
    143 H                     0.235018       0.000000
    144 H                     0.218329      -0.000000
    145 H                     0.218076       0.000000
    146 H                     0.235943      -0.000000
    147 H                     0.218706       0.000000
    148 H                     0.218415       0.000000
    149 H                     0.249806       0.000799
    150 H                     0.242415      -0.000189
    151 H                     0.241796      -0.000251
    152 H                     0.249033       0.000837
    153 H                     0.242342      -0.000271
    154 H                     0.242621      -0.000283
  --------------------------------------------------------
  Sum of atomic charges =    -0.000000

                    Cartesian Multipole Moments
 -----------------------------------------------------------------
    Charge (ESU x 10^10)
                -0.0000
    Dipole Moment (Debye)
         X     -21.3297      Y     -14.8052      Z     -23.4521
       Tot      34.9879
    Quadrupole Moments (Debye-Ang)
        XX    -212.5316     XY     236.1153     YY    -311.0558
        XZ     285.6511     YZ     262.1987     ZZ    -190.1325

 Total job time:  87774.47s(wall), 326883.61s(cpu)
        *  Thank you very much for using Q-Chem.  Have a nice day.  *
