 Q-Chem 5.1, Q-Chem, Inc., Pleasanton, CA (2018)
 Q-Chem 5.1.1 for Intel X86 EM64T Linux

User input:
--------------------------------------------------------------
$rem
threads 8
jobtype	sp
method PBEh-3c
basis def2-mSVP
mem_static	1024
mem_total	8000
sym_ignore	true
unrestricted true
scf_convergence	9
solvent_method	pcm
$end

$molecule
read incoords.mol
$end

$solvent
dielectric	1.0001
$end

$pcm
theory iefpcm
$end
--------------------------------------------------------------

   17   -3317.7860720281      4.49e-10  Convergence criterion met
 Total energy in the final basis set =    -3317.7860720281
 Total job time:  5154.45s(wall), 39123.82s(cpu)
        *  Thank you very much for using Q-Chem.  Have a nice day.  *
 Q-Chem 5.1, Q-Chem, Inc., Pleasanton, CA (2018)
 Q-Chem 5.1.1 for Intel X86 EM64T Linux

User input:
--------------------------------------------------------------

$rem
threads 8
jobtype opt
method PBEh-3c
basis def2-mSVP
scf_guess	read
mem_static      1024
mem_total       8000
sym_ignore      true
unrestricted true
mom_start       1
scf_algorithm	diis
scf_max_cycles	250
solvent_method	pcm
geom_opt_tol_energy 25
geom_opt_tol_gradient 75
$end

$solvent
dielectric      1.0001
$end

$pcm
theory iefpcm
$end

$occupied
1 2 3 4 5 6 7 8 9 10 11 12 13 14 15 16 17 18 19 20 21 22 23 24 25 26 27 28 29 30 31 32 33 34 35 36 37 38 39 40 41 42 43 44 45 46 47 48 49 50 51 52 53 54 55 56 57 58 59 60 61 62 63 64 65 66 67 68 69 70 71 72 73 74 75 76 77 78 79 80 81 82 83 84 85 86 87 88 89 90 91 92 93 94 95 96 97 98 99 100 101 102 103 104 105 106 107 108 109 110 111 112 113 114 115 116 117 118 119 120 121 122 123 124 125 126 127 128 129 130 131 132 133 134 135 136 137 138 139 140 141 142 143 144 145 146 147 148 149 150 151 152 153 154 155 156 157 158 159 160 161 162 163 164 165 166 167 168 169 170 171 172 173 174 175 176 177 178 179 180 181 182 183 184 185 186 187 188 189 190 191 192 193 194 195 196 197 198 199 200 201 202 203 204 205 206 207 208 209 210 211 212 213 214 215 216 217 218 219 220 221 222 223 224 225 226 227 228 229 230 231 232 233 234 235 236 237 238 239 240 241 242 243 244 245 246 247 248 249 250 251 252 253 254 255 256 257 258 259 260 261 262 263 264 265 266 267 268 269 270 271 272 273 274 275 276 277 278 279 280 281 282 283 284 285 286 287 288 289 290 291  293
1 2 3 4 5 6 7 8 9 10 11 12 13 14 15 16 17 18 19 20 21 22 23 24 25 26 27 28 29 30 31 32 33 34 35 36 37 38 39 40 41 42 43 44 45 46 47 48 49 50 51 52 53 54 55 56 57 58 59 60 61 62 63 64 65 66 67 68 69 70 71 72 73 74 75 76 77 78 79 80 81 82 83 84 85 86 87 88 89 90 91 92 93 94 95 96 97 98 99 100 101 102 103 104 105 106 107 108 109 110 111 112 113 114 115 116 117 118 119 120 121 122 123 124 125 126 127 128 129 130 131 132 133 134 135 136 137 138 139 140 141 142 143 144 145 146 147 148 149 150 151 152 153 154 155 156 157 158 159 160 161 162 163 164 165 166 167 168 169 170 171 172 173 174 175 176 177 178 179 180 181 182 183 184 185 186 187 188 189 190 191 192 193 194 195 196 197 198 199 200 201 202 203 204 205 206 207 208 209 210 211 212 213 214 215 216 217 218 219 220 221 222 223 224 225 226 227 228 229 230 231 232 233 234 235 236 237 238 239 240 241 242 243 244 245 246 247 248 249 250 251 252 253 254 255 256 257 258 259 260 261 262 263 264 265 266 267 268 269 270 271 272 273 274 275 276 277 278 279 280 281 282 283 284 285 286 287 288 289 290 291 292
$end

$molecule
read
$end

--------------------------------------------------------------

   47   -3317.6977721989      7.40E-09 Convergence criterion met
 Total energy in the final basis set = -3317.69777220
   41   -3317.7005111178      6.93E-09 Convergence criterion met
 Total energy in the final basis set = -3317.70051112
   19   -3317.6991614081      6.23E-09 Convergence criterion met
 Total energy in the final basis set = -3317.69916141
   49   -3317.6974251824      4.79E-09 Convergence criterion met
 Total energy in the final basis set = -3317.69742518
   29   -3317.6988457216      7.30E-09 Convergence criterion met
 Total energy in the final basis set = -3317.69884572
   27   -3317.6941832954      9.48E-09 Convergence criterion met
 Total energy in the final basis set = -3317.69418330
   21   -3317.6958759198      9.19E-09 Convergence criterion met
   16   -3317.7015861859      9.30E-09 Convergence criterion met
 Total energy in the final basis set = -3317.70158619
   16   -3317.7016195114      5.50E-09 Convergence criterion met
 Total energy in the final basis set = -3317.70161951
   15   -3317.7016233368      7.39E-09 Convergence criterion met
 Total energy in the final basis set = -3317.70162334
   15   -3317.7016260106      5.23E-09 Convergence criterion met
 Total energy in the final basis set = -3317.70162601
   13   -3317.7016249918      9.50E-09 Convergence criterion met
 Total energy in the final basis set = -3317.70162499
   13   -3317.7016244213      9.09E-09 Convergence criterion met
 Total energy in the final basis set = -3317.70162442

             Standard Nuclear Orientation (Angstroms)
    I     Atom           X                Y                Z
 ----------------------------------------------------------------
    1      N       0.1145213904    -1.1213068491     0.7009966274
    2      C      -0.5916953545    -0.3160621725     1.5726844387
    3      C       0.0797944453     0.5415794537     2.4572017987
    4      C       1.5880448771     0.6281521313     2.5138437649
    5      C      -0.6882593252     1.3324992434     3.3018701089
    6      H      -0.1938687695     2.0058284885     3.9903937490
    7      C      -2.0716567291     1.2929186037     3.2959914057
    8      H      -2.6346939811     1.9249315445     3.9689326397
    9      C      -2.7247655167     0.4341417683     2.4207982342
   10      H      -3.8050695441     0.3851063473     2.4026485048
   11      C      -1.9979112954    -0.3631443048     1.5679007168
   12      H      -2.5135686611    -1.0280670962     0.8909584721
   13      C       1.4939706600    -1.1365551251     0.6639842881
   14      C       2.1512839734    -1.9816574436    -0.2468347856
   15      H       1.5760080483    -2.6091882511    -0.9116614625
   16      C       3.5254293838    -2.0146437054    -0.2981573463
   17      H       4.0143472750    -2.6711518076    -1.0048303559
   18      C       4.2743164804    -1.2085784732     0.5504177977
   19      H       5.3548293102    -1.2281830008     0.5162358604
   20      C       3.6233005681    -0.3742721595     1.4421612931
   21      H       4.2175780512     0.2516669788     2.0952167516
   22      C       2.2389466916    -0.3136778814     1.5236642611
   23      C      -0.6180251484    -1.9561612078    -0.2032580788
   24      C      -0.9311627780    -3.2526527605     0.1591381747
   25      H      -0.6054543227    -3.6389436702     1.1189278648
   26      C      -1.6758956082    -4.0527391145    -0.7028956031
   27      C      -1.0274840691    -1.4443594563    -1.4213138444
   28      H      -0.7724075077    -0.4254526923    -1.6910595054
   29      C      -1.7779054554    -2.2307283536    -2.2878321574
   30      C      -2.1221858299    -3.5464974429    -1.9328686727
   31      C      -2.1830910827    -1.6513006331    -3.6185810318
   32      H      -2.2346043787    -0.5619323710    -3.5397088675
   33      H      -3.1889744315    -1.9858646636    -3.8798839741
   34      C      -1.2167488057    -2.0327268532    -4.7379314551
   35      C      -2.0424414862    -5.4455796141    -0.2597553571
   36      H      -1.2467318467    -5.8480992574     0.3733388783
   37      H      -2.1072019392    -6.1052278251    -1.1271848712
   38      C      -3.3649067157    -5.4820327433     0.5028070909
   39      H      -4.1882385923    -5.1423297598    -0.1244002682
   40      H      -3.5948819662    -6.4959241023     0.8317500678
   41      H      -3.3299928903    -4.8431202462     1.3867450536
   42      B      -3.0599827532    -4.3990595288    -2.8920850844
   43      C      -4.5738783368    -4.1400405776    -2.8534409753
   44      C      -5.1396052213    -3.2374394767    -1.9248061649
   45      H      -4.4894988907    -2.7180261014    -1.2278318186
   46      C      -6.4945384576    -3.0155623214    -1.8890583479
   47      C      -7.3445157226    -3.6967100267    -2.8090037952
   48      C      -6.8184623345    -4.5664829295    -3.7271910765
   49      H      -7.4744806749    -5.0731232272    -4.4284269540
   50      C      -5.4340887448    -4.8161010919    -3.7727649123
   51      C      -7.3428370172    -2.1717444320    -1.0455371279
   52      C      -7.1398558181    -1.3013479442    -0.0042671380
   53      H      -6.1485717343    -1.0988914216     0.3824434932
   54      C      -8.6688844990    -2.3757918987    -1.4838033754
   55      C      -9.7904697585    -1.7597927731    -0.9344790884
   56      C      -8.7206414951    -3.2918658313    -2.5527576651
   57      C      -9.9441152533    -3.6025762556    -3.0936020081
   58      H     -10.0423769448    -4.2998112045    -3.9169731782
   59      C      -8.2592612448    -0.6579981607     0.5731036602
   60      H      -8.0929461395     0.0277345678     1.3943948691
   61      C      -9.5468570016    -0.8682618904     0.1369097771
   62      H     -10.3720460495    -0.3525766520     0.6129579892
   63      C     -11.0401487980    -2.0981082250    -1.5097765435
   64      H     -11.9513063955    -1.6544663592    -1.1269878793
   65      C     -11.0979640427    -2.9911665157    -2.5546199366
   66      H     -12.0625834553    -3.2372624980    -2.9811645884
   67      C      -2.4847169361    -5.4304554850    -3.8719576717
   68      C      -1.1042812407    -5.7332670846    -3.8957782878
   69      H      -0.4400572217    -5.2243790340    -3.2038256836
   70      C      -0.5983347395    -6.6604981953    -4.7751116940
   71      C      -1.4760052961    -7.3184244348    -5.6858973728
   72      C      -2.8156374722    -7.0310324621    -5.6915066608
   73      H      -3.4742267499    -7.5341473442    -6.3928346451
   74      C      -3.3561503709    -6.0946682149    -4.7906415402
   75      C       0.7495760373    -7.1838768979    -5.0068060845
   76      C       1.9925267565    -6.9711537276    -4.4670156923
   77      H       2.1518705008    -6.2580753868    -3.6679014253
   78      C       0.6347617476    -8.1366650557    -6.0418840919
   79      C       1.6906259195    -8.8832359137    -6.5561167265
   80      C      -0.6970792653    -8.2523649583    -6.4856394942
   81      C      -0.9854244608    -9.1488577900    -7.4841821272
   82      H      -1.9937100158    -9.2805420098    -7.8579012728
   83      C       3.0870102054    -7.7114590649    -4.9714088185
   84      H       4.0657296646    -7.5401368351    -4.5412974493
   85      C       2.9595469225    -8.6390472196    -5.9792948716
   86      H       3.8289584562    -9.1826931356    -6.3283443872
   87      C       1.3679316068    -9.8000035362    -7.5869127234
   88      H       2.1438764844   -10.4124954721    -8.0298271878
   89      C       0.0689610042    -9.9172606337    -8.0252147603
   90      H      -0.1567259332   -10.6263225979    -8.8120642015
   91      B      -4.8567442986    -5.7935002030    -4.7985574395
   92      C      -5.8097536650    -6.4615778342    -5.8821999897
   93      C      -6.1792332872    -5.7390159693    -7.0299011618
   94      C      -7.0338321306    -6.3014241939    -7.9711525539
   95      H      -7.3307088693    -5.7382686911    -8.8492882328
   96      C      -7.5143874290    -7.5837520948    -7.7860237107
   97      C      -7.1546122123    -8.3192689197    -6.6736227497
   98      H      -7.5462629330    -9.3225501172    -6.5439663257
   99      C      -6.3096181943    -7.7634001483    -5.7184630885
  100      N      -8.4260159012    -8.1416180047    -8.7388842067
  101      C      -9.7804110907    -7.9882670206    -8.5205854452
  102      C     -10.7141009051    -8.5068485477    -9.4320742922
  103      C     -10.3046857904    -9.2400469711   -10.6923500881
  104      C     -12.0632579540    -8.3234420364    -9.1596130475
  105      H     -12.7986974761    -8.7153070646    -9.8504825920
  106      C     -12.5059133113    -7.6523197396    -8.0340926225
  107      H     -13.5654873604    -7.5292404821    -7.8567721801
  108      C     -11.5735885798    -7.1399909805    -7.1411679996
  109      H     -11.8963339253    -6.6101291622    -6.2553582759
  110      C     -10.2277031138    -7.3026925297    -7.3771467262
  111      H      -9.5129044137    -6.8988269963    -6.6758872424
  112      C      -7.9290429085    -8.8068938761    -9.8414722452
  113      C      -8.7981873975    -9.3489310300   -10.8023477547
  114      C      -8.2383854939   -10.0023047133   -11.8920637741
  115      H      -8.8899548154   -10.4260291001   -12.6457866263
  116      C      -6.8704113155   -10.1329731376   -12.0526649694
  117      H      -6.4723784176   -10.6480554885   -12.9161248087
  118      C      -6.0207381994    -9.5959204790   -11.0941493430
  119      H      -4.9483160283    -9.6869699375   -11.1991659693
  120      C      -6.5391483611    -8.9407214912   -10.0006581317
  121      H      -5.8708595106    -8.5250130711    -9.2611747460
  122      C      -6.0107979141    -8.5694017740    -4.4827393446
  123      H      -5.9331158748    -9.6280620308    -4.7457832234
  124      H      -5.0419884352    -8.2820574867    -4.0716183763
  125      C      -7.0918588249    -8.3866596927    -3.4196199202
  126      C      -5.6261939949    -4.3667624645    -7.3060061889
  127      H      -6.3684278899    -3.7753191323    -7.8492115310
  128      H      -5.4415828178    -3.8420027323    -6.3674283532
  129      C      -4.3346960100    -4.4346264730    -8.1176085981
  130      H      -3.5668828639    -4.9910346745    -7.5809549375
  131      H      -4.4962043708    -4.9276110062    -9.0779318163
  132      H      -3.9448451716    -3.4357055347    -8.3157772554
  133      H      -7.1545845880    -7.3455490481    -3.1033401856
  134      H      -6.8786022256    -8.9899893588    -2.5367293903
  135      H      -8.0722214280    -8.6820958068    -3.7979489469
  136      H      -1.5267030406    -1.5867067199    -5.6836581391
  137      H      -1.1836023757    -3.1124537321    -4.8775972449
  138      H      -0.2040554735    -1.6894568538    -4.5213160162
  139      C     -10.8417090341    -8.4697133491   -11.9143777058
  140      C     -10.9115690593   -10.6555646766   -10.6702198805
  141      C       2.0497110729     0.2549299768     3.9342662267
  142      C       2.0114573967     2.0697620415     2.1776796275
  143      H       1.6832430377     2.3472848683     1.1761783467
  144      H       3.0944723165     2.1826424572     2.2197725003
  145      H       1.5800995588     2.7811701854     2.8816722926
  146      H       1.7544369651    -0.7642003059     4.1829180081
  147      H       1.6141331367     0.9216750819     4.6780666606
  148      H       3.1329841310     0.3239714092     4.0293567001
  149      H     -10.4223673972    -7.4651802664   -11.9606547120
  150      H     -11.9274650788    -8.3791566575   -11.8760245109
  151      H     -10.5911985036    -8.9821131229   -12.8433706690
  152      H     -10.5471567992   -11.2252639263    -9.8161370182
  153      H     -10.6589904331   -11.2083097238   -11.5751049857
  154      H     -11.9991816654   -10.6173246963   -10.6092685400
 ----------------------------------------------------------------

   12   -3317.7016244862      9.01E-09 Convergence criterion met
 Total energy in the final basis set = -3317.70162449
 Final energy is   -3317.70162448621
 **  OPTIMIZATION CONVERGED  **

                    Orbital Energies (a.u.)
 --------------------------------------------------------------

 Alpha MOs
 -- Occupied --
-14.729 -14.724 -10.526 -10.525 -10.522 -10.522 -10.498 -10.495
-10.489 -10.486 -10.485 -10.485 -10.481 -10.481 -10.473 -10.473
-10.470 -10.470 -10.469 -10.469 -10.469 -10.469 -10.469 -10.469
-10.466 -10.466 -10.466 -10.465 -10.465 -10.465 -10.451 -10.451
-10.448 -10.448 -10.444 -10.444 -10.443 -10.443 -10.443 -10.443
-10.441 -10.441 -10.437 -10.436 -10.435 -10.434 -10.434 -10.433
-10.433 -10.433 -10.433 -10.433 -10.433 -10.432 -10.432 -10.432
-10.432 -10.431 -10.430 -10.429 -10.420 -10.420 -10.419 -10.418
-10.418 -10.418 -10.418 -10.417 -10.417 -10.417 -10.415 -10.415
-10.415 -10.414 -10.413 -10.412 -10.406 -10.404 -10.404 -10.403
-10.388 -10.388 -10.387 -10.386  -6.883  -6.881  -1.123  -1.119
 -0.993  -0.989  -0.988  -0.984  -0.983  -0.982  -0.954  -0.952
 -0.937  -0.933  -0.924  -0.922  -0.905  -0.904  -0.881  -0.880
 -0.879  -0.877  -0.874  -0.870  -0.865  -0.865  -0.862  -0.861
 -0.844  -0.840  -0.824  -0.823  -0.820  -0.819  -0.819  -0.818
 -0.797  -0.796  -0.796  -0.795  -0.794  -0.790  -0.783  -0.779
 -0.778  -0.766  -0.748  -0.744  -0.740  -0.736  -0.712  -0.708
 -0.705  -0.705  -0.700  -0.698  -0.697  -0.696  -0.694  -0.689
 -0.688  -0.687  -0.658  -0.657  -0.652  -0.647  -0.646  -0.644
 -0.642  -0.640  -0.638  -0.630  -0.623  -0.622  -0.613  -0.610
 -0.597  -0.595  -0.569  -0.568  -0.565  -0.565  -0.563  -0.562
 -0.559  -0.556  -0.555  -0.553  -0.553  -0.552  -0.550  -0.549
 -0.547  -0.544  -0.543  -0.526  -0.525  -0.525  -0.522  -0.518
 -0.515  -0.512  -0.511  -0.509  -0.508  -0.505  -0.504  -0.502
 -0.498  -0.496  -0.490  -0.488  -0.485  -0.483  -0.481  -0.477
 -0.475  -0.474  -0.473  -0.473  -0.470  -0.469  -0.466  -0.464
 -0.461  -0.461  -0.460  -0.458  -0.457  -0.455  -0.454  -0.453
 -0.452  -0.452  -0.451  -0.450  -0.450  -0.449  -0.447  -0.446
 -0.442  -0.439  -0.438  -0.436  -0.434  -0.433  -0.430  -0.429
 -0.422  -0.419  -0.418  -0.418  -0.417  -0.416  -0.412  -0.407
 -0.404  -0.400  -0.399  -0.398  -0.396  -0.395  -0.394  -0.393
 -0.392  -0.391  -0.387  -0.384  -0.382  -0.379  -0.376  -0.372
 -0.371  -0.371  -0.369  -0.368  -0.367  -0.365  -0.360  -0.358
 -0.357  -0.356  -0.338  -0.335  -0.330  -0.318  -0.315  -0.314
 -0.313  -0.311  -0.309  -0.309  -0.306  -0.304  -0.288  -0.282
 -0.274  -0.273  -0.272  -0.270  -0.268  -0.264  -0.251  -0.235
 -0.224  -0.219  -0.203  -0.130

 Beta MOs
 -- Occupied --
-14.735 -14.729 -10.525 -10.525 -10.521 -10.521 -10.498 -10.494
-10.488 -10.487 -10.487 -10.486 -10.483 -10.483 -10.472 -10.472
-10.471 -10.471 -10.470 -10.470 -10.469 -10.468 -10.468 -10.468
-10.467 -10.467 -10.467 -10.466 -10.465 -10.465 -10.451 -10.451
-10.448 -10.448 -10.444 -10.444 -10.443 -10.443 -10.443 -10.442
-10.441 -10.441 -10.438 -10.436 -10.435 -10.435 -10.434 -10.434
-10.434 -10.433 -10.432 -10.432 -10.432 -10.432 -10.432 -10.431
-10.431 -10.431 -10.431 -10.430 -10.419 -10.419 -10.419 -10.418
-10.418 -10.418 -10.417 -10.417 -10.417 -10.416 -10.416 -10.415
-10.415 -10.414 -10.413 -10.413 -10.406 -10.404 -10.404 -10.403
-10.388 -10.388 -10.386 -10.386  -6.881  -6.879  -1.133  -1.128
 -0.995  -0.991  -0.990  -0.986  -0.982  -0.981  -0.954  -0.953
 -0.939  -0.935  -0.923  -0.921  -0.904  -0.903  -0.883  -0.880
 -0.879  -0.879  -0.874  -0.870  -0.867  -0.865  -0.862  -0.862
 -0.845  -0.841  -0.827  -0.825  -0.819  -0.818  -0.818  -0.817
 -0.798  -0.797  -0.797  -0.795  -0.795  -0.791  -0.781  -0.779
 -0.778  -0.765  -0.748  -0.745  -0.743  -0.739  -0.712  -0.709
 -0.705  -0.705  -0.699  -0.699  -0.696  -0.695  -0.695  -0.689
 -0.688  -0.687  -0.658  -0.656  -0.653  -0.647  -0.647  -0.645
 -0.643  -0.642  -0.636  -0.629  -0.624  -0.623  -0.613  -0.610
 -0.597  -0.595  -0.567  -0.567  -0.566  -0.564  -0.564  -0.562
 -0.560  -0.559  -0.558  -0.557  -0.553  -0.552  -0.550  -0.549
 -0.548  -0.543  -0.542  -0.526  -0.525  -0.525  -0.523  -0.522
 -0.519  -0.512  -0.510  -0.509  -0.508  -0.505  -0.504  -0.503
 -0.498  -0.496  -0.489  -0.488  -0.488  -0.485  -0.484  -0.479
 -0.478  -0.476  -0.475  -0.473  -0.469  -0.468  -0.466  -0.465
 -0.461  -0.461  -0.460  -0.458  -0.456  -0.456  -0.454  -0.453
 -0.453  -0.451  -0.451  -0.450  -0.450  -0.450  -0.447  -0.446
 -0.444  -0.442  -0.440  -0.437  -0.434  -0.433  -0.431  -0.427
 -0.425  -0.422  -0.419  -0.418  -0.417  -0.417  -0.412  -0.408
 -0.406  -0.405  -0.403  -0.401  -0.398  -0.396  -0.395  -0.393
 -0.392  -0.390  -0.387  -0.384  -0.382  -0.378  -0.376  -0.371
 -0.371  -0.371  -0.369  -0.366  -0.365  -0.364  -0.359  -0.358
 -0.357  -0.355  -0.336  -0.328  -0.328  -0.327  -0.324  -0.319
 -0.315  -0.313  -0.312  -0.309  -0.308  -0.303  -0.282  -0.278
 -0.275  -0.273  -0.272  -0.267  -0.266  -0.264  -0.262  -0.257
 -0.240  -0.227  -0.222  -0.211

          Ground-State Mulliken Net Atomic Charges

     Atom                 Charge (a.u.)    Spin (a.u.)
  --------------------------------------------------------
      1 N                    -0.663678      -0.230589
      2 C                     0.301197       0.047883
      3 C                     0.168879      -0.116535
      4 C                    -0.224470       0.019081
      5 C                    -0.293711       0.076466
      6 H                     0.219992      -0.003691
      7 C                    -0.209666      -0.130132
      8 H                     0.232150       0.007091
      9 C                    -0.231634       0.067742
     10 H                     0.237770      -0.003152
     11 C                    -0.280120      -0.093062
     12 H                     0.291079       0.005109
     13 C                     0.305441       0.048736
     14 C                    -0.282674      -0.093146
     15 H                     0.289141       0.005095
     16 C                    -0.231852       0.067888
     17 H                     0.238083      -0.003159
     18 C                    -0.210626      -0.129911
     19 H                     0.231910       0.007082
     20 C                    -0.292657       0.076521
     21 H                     0.220126      -0.003697
     22 C                     0.165627      -0.116866
     23 C                     0.147355       0.019124
     24 C                    -0.291840      -0.011059
     25 H                     0.218412       0.000820
     26 C                     0.048527       0.005757
     27 C                    -0.295737      -0.011346
     28 H                     0.217642       0.000841
     29 C                     0.046520       0.006372
     30 C                    -0.163062      -0.029719
     31 C                    -0.543216       0.002229
     32 H                     0.216697       0.000634
     33 H                     0.276419      -0.002369
     34 C                    -0.649176       0.000154
     35 C                    -0.542150       0.001885
     36 H                     0.216553       0.000642
     37 H                     0.272964      -0.001900
     38 C                    -0.650100       0.000093
     39 H                     0.265269      -0.000460
     40 H                     0.217945      -0.000035
     41 H                     0.200776      -0.000088
     42 B                     0.529964       0.318690
     43 C                    -0.135717       0.035154
     44 C                    -0.401828      -0.037408
     45 H                     0.197568       0.001081
     46 C                     0.101912       0.063881
     47 C                     0.078342       0.068894
     48 C                    -0.395084      -0.040786
     49 H                     0.197546       0.001287
     50 C                    -0.133140       0.036454
     51 C                     0.198887      -0.049300
     52 C                    -0.394803       0.077393
     53 H                     0.191185      -0.004693
     54 C                    -0.078787       0.023764
     55 C                     0.253701      -0.038932
     56 C                     0.197955      -0.051370
     57 C                    -0.386929       0.080095
     58 H                     0.193841      -0.004833
     59 C                    -0.196992      -0.049823
     60 H                     0.206354       0.002494
     61 C                    -0.348373       0.072078
     62 H                     0.206549      -0.004322
     63 C                    -0.344615       0.074799
     64 H                     0.206127      -0.004498
     65 C                    -0.199885      -0.050834
     66 H                     0.207945       0.002532
     67 C                    -0.132920       0.031751
     68 C                    -0.407352      -0.034366
     69 H                     0.196919       0.000927
     70 C                     0.101994       0.061522
     71 C                     0.078108       0.068290
     72 C                    -0.396487      -0.039647
     73 H                     0.198608       0.001231
     74 C                    -0.130380       0.035316
     75 C                     0.197856      -0.048465
     76 C                    -0.396369       0.075364
     77 H                     0.197968      -0.004534
     78 C                    -0.077230       0.023219
     79 C                     0.254181      -0.037988
     80 C                     0.196874      -0.050951
     81 C                    -0.386997       0.078664
     82 H                     0.197616      -0.004735
     83 C                    -0.198327      -0.048616
     84 H                     0.208946       0.002429
     85 C                    -0.348525       0.069986
     86 H                     0.206519      -0.004193
     87 C                    -0.344339       0.073373
     88 H                     0.206026      -0.004411
     89 C                    -0.201433      -0.049992
     90 H                     0.209010       0.002489
     91 B                     0.529601       0.314422
     92 C                    -0.172830      -0.029210
     93 C                     0.044250       0.006255
     94 C                    -0.291186      -0.010764
     95 H                     0.217654       0.000809
     96 C                     0.151861       0.018115
     97 C                    -0.288994      -0.010649
     98 H                     0.218515       0.000801
     99 C                     0.047413       0.005974
    100 N                    -0.667789      -0.212391
    101 C                     0.303111       0.043889
    102 C                     0.164777      -0.108083
    103 C                    -0.225187       0.017725
    104 C                    -0.292710       0.070684
    105 H                     0.218524      -0.003412
    106 C                    -0.211640      -0.120299
    107 H                     0.230133       0.006552
    108 C                    -0.231090       0.062422
    109 H                     0.235692      -0.002908
    110 C                    -0.281254      -0.085574
    111 H                     0.287529       0.004707
    112 C                     0.308125       0.044228
    113 C                     0.163821      -0.107894
    114 C                    -0.292877       0.070608
    115 H                     0.218680      -0.003411
    116 C                    -0.211973      -0.120128
    117 H                     0.230215       0.006549
    118 C                    -0.231568       0.062573
    119 H                     0.236737      -0.002913
    120 C                    -0.285747      -0.085764
    121 H                     0.286083       0.004709
    122 C                    -0.540919       0.002424
    123 H                     0.218486       0.000521
    124 H                     0.275516      -0.002076
    125 C                    -0.647857      -0.000127
    126 C                    -0.544166       0.002742
    127 H                     0.218534       0.000558
    128 H                     0.277839      -0.002548
    129 C                    -0.647432      -0.000058
    130 H                     0.260734      -0.000361
    131 H                     0.201360      -0.000100
    132 H                     0.216186      -0.000038
    133 H                     0.257122      -0.000279
    134 H                     0.218738      -0.000041
    135 H                     0.200687      -0.000083
    136 H                     0.215492      -0.000033
    137 H                     0.266637      -0.000558
    138 H                     0.201797      -0.000117
    139 C                    -0.596040      -0.010648
    140 C                    -0.598077      -0.010292
    141 C                    -0.598260      -0.010989
    142 C                    -0.597145      -0.011153
    143 H                     0.241247       0.000412
    144 H                     0.225155      -0.000113
    145 H                     0.225035      -0.000122
    146 H                     0.241468       0.000397
    147 H                     0.225265      -0.000084
    148 H                     0.224947      -0.000104
    149 H                     0.240813       0.000383
    150 H                     0.224160      -0.000076
    151 H                     0.223636      -0.000095
    152 H                     0.241272       0.000356
    153 H                     0.223790      -0.000051
    154 H                     0.224007      -0.000051
  --------------------------------------------------------
  Sum of atomic charges =    -0.000000

                    Cartesian Multipole Moments
 -----------------------------------------------------------------
    Charge (ESU x 10^10)
                -0.0000
    Dipole Moment (Debye)
         X      -0.0028      Y       2.3265      Z       0.0197
       Tot       2.3266
    Quadrupole Moments (Debye-Ang)
        XX    -405.1833     XY      60.5941     YY    -471.2266
        XZ      92.6422     YZ      78.2138     ZZ    -396.3321

 Total job time:  149639.06s(wall), 644306.08s(cpu)
        *  Thank you very much for using Q-Chem.  Have a nice day.  *
