 Q-Chem 5.1, Q-Chem, Inc., Pleasanton, CA (2018)
 Q-Chem 5.1.1 for Intel X86 EM64T Linux

User input:
--------------------------------------------------------------
$rem
threads 8
jobtype	sp
method PBEh-3c
basis def2-mSVP
mem_static	1024
mem_total	8000
sym_ignore	true
unrestricted true
scf_convergence	9
solvent_method	pcm
$end

$molecule
read incoords.mol
$end

$solvent
dielectric	2.38
$end

$pcm
theory iefpcm
$end
--------------------------------------------------------------

   16   -3317.8039067831      6.59e-10  Convergence criterion met
 Total energy in the final basis set =    -3317.8039067831
 Total job time:  4563.99s(wall), 34494.66s(cpu)
        *  Thank you very much for using Q-Chem.  Have a nice day.  *
 Q-Chem 5.1, Q-Chem, Inc., Pleasanton, CA (2018)
 Q-Chem 5.1.1 for Intel X86 EM64T Linux

User input:
--------------------------------------------------------------

$rem
threads 8
jobtype opt
method PBEh-3c
basis def2-mSVP
scf_guess	read
mem_static      1024
mem_total       8000
sym_ignore      true
unrestricted true
mom_start       1
scf_algorithm	diis
scf_max_cycles	250
solvent_method	pcm
geom_opt_tol_energy 25
geom_opt_tol_gradient 75
$end

$solvent
dielectric      2.38
$end

$pcm
theory iefpcm
$end

$occupied
1 2 3 4 5 6 7 8 9 10 11 12 13 14 15 16 17 18 19 20 21 22 23 24 25 26 27 28 29 30 31 32 33 34 35 36 37 38 39 40 41 42 43 44 45 46 47 48 49 50 51 52 53 54 55 56 57 58 59 60 61 62 63 64 65 66 67 68 69 70 71 72 73 74 75 76 77 78 79 80 81 82 83 84 85 86 87 88 89 90 91 92 93 94 95 96 97 98 99 100 101 102 103 104 105 106 107 108 109 110 111 112 113 114 115 116 117 118 119 120 121 122 123 124 125 126 127 128 129 130 131 132 133 134 135 136 137 138 139 140 141 142 143 144 145 146 147 148 149 150 151 152 153 154 155 156 157 158 159 160 161 162 163 164 165 166 167 168 169 170 171 172 173 174 175 176 177 178 179 180 181 182 183 184 185 186 187 188 189 190 191 192 193 194 195 196 197 198 199 200 201 202 203 204 205 206 207 208 209 210 211 212 213 214 215 216 217 218 219 220 221 222 223 224 225 226 227 228 229 230 231 232 233 234 235 236 237 238 239 240 241 242 243 244 245 246 247 248 249 250 251 252 253 254 255 256 257 258 259 260 261 262 263 264 265 266 267 268 269 270 271 272 273 274 275 276 277 278 279 280 281 282 283 284 285 286 287 288 289 290 291  293
1 2 3 4 5 6 7 8 9 10 11 12 13 14 15 16 17 18 19 20 21 22 23 24 25 26 27 28 29 30 31 32 33 34 35 36 37 38 39 40 41 42 43 44 45 46 47 48 49 50 51 52 53 54 55 56 57 58 59 60 61 62 63 64 65 66 67 68 69 70 71 72 73 74 75 76 77 78 79 80 81 82 83 84 85 86 87 88 89 90 91 92 93 94 95 96 97 98 99 100 101 102 103 104 105 106 107 108 109 110 111 112 113 114 115 116 117 118 119 120 121 122 123 124 125 126 127 128 129 130 131 132 133 134 135 136 137 138 139 140 141 142 143 144 145 146 147 148 149 150 151 152 153 154 155 156 157 158 159 160 161 162 163 164 165 166 167 168 169 170 171 172 173 174 175 176 177 178 179 180 181 182 183 184 185 186 187 188 189 190 191 192 193 194 195 196 197 198 199 200 201 202 203 204 205 206 207 208 209 210 211 212 213 214 215 216 217 218 219 220 221 222 223 224 225 226 227 228 229 230 231 232 233 234 235 236 237 238 239 240 241 242 243 244 245 246 247 248 249 250 251 252 253 254 255 256 257 258 259 260 261 262 263 264 265 266 267 268 269 270 271 272 273 274 275 276 277 278 279 280 281 282 283 284 285 286 287 288 289 290 291 292
$end

$molecule
read
$end

--------------------------------------------------------------

   20   -3317.7297783435      6.86E-09 Convergence criterion met
 Total energy in the final basis set = -3317.72977834
   15   -3317.7299268864      8.35E-09 Convergence criterion met
 Total energy in the final basis set = -3317.72992689
   16   -3317.7296071658      5.84E-09 Convergence criterion met
 Total energy in the final basis set = -3317.72960717
   15   -3317.7300139219      8.36E-09 Convergence criterion met
 Total energy in the final basis set = -3317.73001392
   14   -3317.7300450910      9.79E-09 Convergence criterion met
 Total energy in the final basis set = -3317.73004509
   14   -3317.7295490163      9.28E-09 Convergence criterion met
 Total energy in the final basis set = -3317.72954902
   14   -3317.7301584207      8.80E-09 Convergence criterion met
   15   -3317.7301948930      8.74E-09 Convergence criterion met
 Total energy in the final basis set = -3317.73019489
   15   -3317.7301978816      8.75E-09 Convergence criterion met
 Total energy in the final basis set = -3317.73019788
   15   -3317.7302088161      8.73E-09 Convergence criterion met
 Total energy in the final basis set = -3317.73020882
   15   -3317.7302210175      8.69E-09 Convergence criterion met
 Total energy in the final basis set = -3317.73022102
   15   -3317.7302279041      8.71E-09 Convergence criterion met
 Total energy in the final basis set = -3317.73022790
   15   -3317.7302297559      8.70E-09 Convergence criterion met
 Total energy in the final basis set = -3317.73022976

             Standard Nuclear Orientation (Angstroms)
    I     Atom           X                Y                Z
 ----------------------------------------------------------------
    1      N       0.1103156830    -1.1541394060     0.7299842867
    2      C      -0.6007002643    -0.3716114849     1.6310554960
    3      C       0.0594546279     0.5039453626     2.4989279207
    4      C       1.5689173358     0.6578828224     2.5115536575
    5      C      -0.7101493405     1.2664431801     3.3733464754
    6      H      -0.2122548790     1.9533890615     4.0471411593
    7      C      -2.0907401486     1.1869993544     3.4163854692
    8      H      -2.6527748550     1.7973075535     4.1105485980
    9      C      -2.7327434215     0.3121784036     2.5540567484
   10      H      -3.8117381317     0.2230027012     2.5619506096
   11      C      -1.9998453042    -0.4572714272     1.6727062697
   12      H      -2.5200742301    -1.1324776131     1.0082990376
   13      C       1.4966783045    -1.1176186949     0.6675550495
   14      C       2.1750635952    -1.9392531548    -0.2420786813
   15      H       1.6187278484    -2.5998812810    -0.8920132757
   16      C       3.5533152678    -1.9203020806    -0.3239733985
   17      H       4.0481843920    -2.5666146716    -1.0375324298
   18      C       4.2905571190    -1.0825151903     0.4983295730
   19      H       5.3705127123    -1.0575625548     0.4431793182
   20      C       3.6161315779    -0.2736198270     1.3954519266
   21      H       4.1929454439     0.3823676439     2.0360760128
   22      C       2.2289647326    -0.2679008802     1.5041309867
   23      C      -0.6116769381    -1.9812103173    -0.1770177744
   24      C      -0.9372259627    -3.2806368886     0.1695630367
   25      H      -0.6192434269    -3.6700741131     1.1309354381
   26      C      -1.6802196233    -4.0785260139    -0.6967208730
   27      C      -1.0145493654    -1.4761264659    -1.4019105827
   28      H      -0.7538398299    -0.4574483211    -1.6682202004
   29      C      -1.7606199212    -2.2561596203    -2.2780717898
   30      C      -2.1154958215    -3.5705078149    -1.9294848299
   31      C      -2.1452051263    -1.6729594218    -3.6141000509
   32      H      -2.2072490298    -0.5846990217    -3.5304585057
   33      H      -3.1425453401    -2.0127767382    -3.9027528833
   34      C      -1.1519801492    -2.0374506774    -4.7156480795
   35      C      -2.0570665006    -5.4695086401    -0.2533293714
   36      H      -1.2615500066    -5.8785095228     0.3755233468
   37      H      -2.1328847269    -6.1318927919    -1.1185941446
   38      C      -3.3738695942    -5.4975470993     0.5194986031
   39      H      -4.1995966409    -5.1492687510    -0.1005885876
   40      H      -3.6108931265    -6.5095801733     0.8508125013
   41      H      -3.3258753427    -4.8580318187     1.4022420353
   42      B      -3.0545589449    -4.4115352034    -2.8935253733
   43      C      -4.5720858977    -4.1461188121    -2.8626810577
   44      C      -5.1284615969    -3.2361773060    -1.9368936285
   45      H      -4.4722293954    -2.7208432660    -1.2432284130
   46      C      -6.4825395506    -3.0006646456    -1.9028070064
   47      C      -7.3392738560    -3.6781203808    -2.8201060928
   48      C      -6.8213156544    -4.5558098583    -3.7356100306
   49      H      -7.4841025995    -5.0590059860    -4.4333686171
   50      C      -5.4376962990    -4.8169792121    -3.7814178192
   51      C      -7.3218853928    -2.1442651610    -1.0635763210
   52      C      -7.1079219526    -1.2695812900    -0.0272388060
   53      H      -6.1147311037    -1.0733763803     0.3575488806
   54      C      -8.6504193241    -2.3378732747    -1.5004307065
   55      C      -9.7656845281    -1.7072124804    -0.9535664855
   56      C      -8.7126249115    -3.2593107979    -2.5646074700
   57      C      -9.9401417360    -3.5619398804    -3.1025215922
   58      H     -10.0468231560    -4.2633047251    -3.9216564978
   59      C      -8.2215831756    -0.6114459943     0.5466500653
   60      H      -8.0462571573     0.0775732767     1.3631758644
   61      C      -9.5123787612    -0.8112542257     0.1129138136
   62      H     -10.3319205049    -0.2842590619     0.5864729584
   63      C     -11.0196818377    -2.0365188177    -1.5257906835
   64      H     -11.9259199425    -1.5814051431    -1.1444516045
   65      C     -11.0879376973    -2.9357789287    -2.5657559035
   66      H     -12.0557425187    -3.1748616293    -2.9893613364
   67      C      -2.4918056606    -5.4493285032    -3.8800682029
   68      C      -1.1137215761    -5.7587394872    -3.9035241821
   69      H      -0.4486635291    -5.2523194511    -3.2109941555
   70      C      -0.6118806619    -6.6890792071    -4.7841313608
   71      C      -1.4938932312    -7.3430101989    -5.6950475551
   72      C      -2.8320326831    -7.0487888270    -5.7005453196
   73      H      -3.4915227754    -7.5503628364    -6.4025520361
   74      C      -3.3682042488    -6.1084508088    -4.7990254431
   75      C       0.7330793874    -7.2180140310    -5.0168471149
   76      C       1.9778991720    -7.0090821660    -4.4777043065
   77      H       2.1416114928    -6.2959153821    -3.6795756602
   78      C       0.6132436582    -8.1706984218    -6.0522695923
   79      C       1.6662933096    -8.9214791765    -6.5677468311
   80      C      -0.7194811981    -8.2811547379    -6.4957775609
   81      C      -1.0123345460    -9.1765849906    -7.4951406269
   82      H      -2.0213558509    -9.3045189160    -7.8688985936
   83      C       3.0690544995    -7.7542685738    -4.9840568091
   84      H       4.0485103449    -7.5855307664    -4.5547041158
   85      C       2.9375941463    -8.6822111032    -5.9921647180
   86      H       3.8046821742    -9.2290443027    -6.3421823646
   87      C       1.3394568330    -9.8370218340    -7.5989751589
   88      H       2.1131101802   -10.4522761183    -8.0423435304
   89      C       0.0391002319    -9.9493068954    -8.0371702890
   90      H      -0.1894259865   -10.6575017941    -8.8241645245
   91      B      -4.8655318758    -5.7982236486    -4.8050430812
   92      C      -5.8229999184    -6.4617742752    -5.8896515667
   93      C      -6.1844731191    -5.7367584403    -7.0394716821
   94      C      -7.0392233701    -6.2926288833    -7.9850886301
   95      H      -7.3289297767    -5.7302037328    -8.8659774681
   96      C      -7.5211713494    -7.5712197812    -7.7890288681
   97      C      -7.1782066067    -8.3154669481    -6.6788781971
   98      H      -7.5762569640    -9.3161946054    -6.5500066606
   99      C      -6.3311213364    -7.7611581432    -5.7242787331
  100      N      -8.4340350741    -8.1311156587    -8.7515207884
  101      C      -9.7832483508    -7.9886298156    -8.5262708175
  102      C     -10.7132673023    -8.5226396792    -9.4392340256
  103      C     -10.2954223035    -9.2566762007   -10.6892081035
  104      C     -12.0615888216    -8.3526597855    -9.1606004205
  105      H     -12.8011928271    -8.7521560390    -9.8416913648
  106      C     -12.4949360372    -7.6795943765    -8.0311535052
  107      H     -13.5544979051    -7.5655412188    -7.8471561287
  108      C     -11.5663649009    -7.1490368082    -7.1381340230
  109      H     -11.8961627294    -6.6187507301    -6.2558651161
  110      C     -10.2231888119    -7.2976768130    -7.3776311426
  111      H      -9.5084385812    -6.8818485537    -6.6836593777
  112      C      -7.9253391646    -8.7777503386    -9.8534773833
  113      C      -8.7940501433    -9.3277989121   -10.8163230461
  114      C      -8.2240657403    -9.9604444349   -11.9110335171
  115      H      -8.8632437511   -10.3933845889   -12.6688606616
  116      C      -6.8514078611   -10.0580372345   -12.0653502712
  117      H      -6.4430860370   -10.5575150079   -12.9333025888
  118      C      -6.0017385280    -9.5161025898   -11.1032692762
  119      H      -4.9292925750    -9.5909031288   -11.2149379624
  120      C      -6.5274334760    -8.8820875682   -10.0052848281
  121      H      -5.8669539122    -8.4630294552    -9.2609718453
  122      C      -6.0387281944    -8.5695962053    -4.4890785969
  123      H      -5.9646087156    -9.6280535388    -4.7530193686
  124      H      -5.0708764070    -8.2847735481    -4.0748601321
  125      C      -7.1224521529    -8.3834753139    -3.4291365346
  126      C      -5.6211279065    -4.3696639760    -7.3179915019
  127      H      -6.3620431648    -3.7694734496    -7.8529258856
  128      H      -5.4201936850    -3.8501252054    -6.3803082739
  129      C      -4.3379910966    -4.4504027714    -8.1418222694
  130      H      -3.5725908317    -5.0191828127    -7.6145289184
  131      H      -4.5139529617    -4.9341942256    -9.1045607228
  132      H      -3.9376257747    -3.4550959259    -8.3353576624
  133      H      -7.1834057998    -7.3419692365    -3.1135933775
  134      H      -6.9102110512    -8.9858202529    -2.5456687153
  135      H      -8.1026194626    -8.6787428633    -3.8086513482
  136      H      -1.4448324843    -1.5910428435    -5.6672123774
  137      H      -1.1028134704    -3.1167246066    -4.8576577578
  138      H      -0.1483025443    -1.6850626867    -4.4736892437
  139      C     -10.8712309146    -8.5201598770   -11.9166051172
  140      C     -10.8572689795   -10.6924813380   -10.6349613213
  141      C       2.0892150446     0.3191217361     3.9186910175
  142      C       1.9200996977     2.1117142284     2.1557703565
  143      H       1.5463918724     2.3653776992     1.1634706018
  144      H       2.9990128560     2.2707639153     2.1602595062
  145      H       1.4817697489     2.8110298785     2.8687140378
  146      H       1.8475249049    -0.7112977816     4.1804717766
  147      H       1.6454228390     0.9693951821     4.6732348750
  148      H       3.1711433973     0.4378807574     3.9845464421
  149      H     -10.4838675528    -7.5043646733   -11.9871795957
  150      H     -11.9578040892    -8.4661446389   -11.8608012975
  151      H     -10.6202606353    -9.0446411728   -12.8378499655
  152      H     -10.4645176079   -11.2389434547    -9.7782239094
  153      H     -10.5984376015   -11.2452762832   -11.5373530127
  154      H     -11.9439887074   -10.6817002112   -10.5604728096
 ----------------------------------------------------------------

   15   -3317.7302327772      8.69E-09 Convergence criterion met
 Total energy in the final basis set = -3317.73023278
 Final energy is   -3317.73023277717
 **  OPTIMIZATION CONVERGED  **

                    Orbital Energies (a.u.)
 --------------------------------------------------------------

 Alpha MOs
 -- Occupied --
-14.785 -14.661 -10.557 -10.557 -10.520 -10.517 -10.516 -10.514
-10.498 -10.498 -10.497 -10.497 -10.495 -10.495 -10.492 -10.492
-10.480 -10.480 -10.465 -10.465 -10.464 -10.464 -10.463 -10.463
-10.463 -10.457 -10.447 -10.447 -10.445 -10.444 -10.444 -10.443
-10.443 -10.442 -10.442 -10.442 -10.441 -10.441 -10.441 -10.441
-10.441 -10.440 -10.440 -10.440 -10.439 -10.439 -10.433 -10.433
-10.432 -10.432 -10.432 -10.432 -10.431 -10.431 -10.431 -10.430
-10.430 -10.430 -10.429 -10.429 -10.428 -10.426 -10.426 -10.425
-10.425 -10.425 -10.424 -10.424 -10.423 -10.422 -10.422 -10.419
-10.417 -10.414 -10.414 -10.414 -10.413 -10.405 -10.402 -10.401
-10.398 -10.398 -10.398 -10.397  -6.893  -6.891  -1.161  -1.073
 -1.017  -1.015  -0.993  -0.992  -0.976  -0.960  -0.955  -0.946
 -0.935  -0.933  -0.931  -0.914  -0.913  -0.910  -0.898  -0.897
 -0.893  -0.891  -0.880  -0.872  -0.870  -0.868  -0.849  -0.843
 -0.838  -0.830  -0.829  -0.828  -0.827  -0.823  -0.815  -0.813
 -0.807  -0.804  -0.803  -0.795  -0.790  -0.788  -0.784  -0.776
 -0.772  -0.771  -0.769  -0.758  -0.733  -0.723  -0.721  -0.711
 -0.710  -0.707  -0.706  -0.704  -0.697  -0.695  -0.694  -0.687
 -0.678  -0.673  -0.672  -0.667  -0.666  -0.657  -0.657  -0.652
 -0.641  -0.639  -0.625  -0.620  -0.620  -0.618  -0.613  -0.604
 -0.603  -0.590  -0.584  -0.579  -0.577  -0.575  -0.574  -0.573
 -0.569  -0.569  -0.567  -0.561  -0.553  -0.553  -0.548  -0.542
 -0.538  -0.537  -0.535  -0.531  -0.530  -0.524  -0.524  -0.520
 -0.518  -0.512  -0.509  -0.505  -0.505  -0.502  -0.499  -0.495
 -0.493  -0.492  -0.487  -0.485  -0.484  -0.483  -0.483  -0.482
 -0.479  -0.475  -0.474  -0.473  -0.472  -0.471  -0.470  -0.467
 -0.467  -0.466  -0.466  -0.466  -0.464  -0.463  -0.462  -0.462
 -0.459  -0.458  -0.456  -0.455  -0.454  -0.446  -0.443  -0.441
 -0.438  -0.435  -0.434  -0.433  -0.431  -0.431  -0.426  -0.426
 -0.421  -0.417  -0.416  -0.415  -0.414  -0.414  -0.411  -0.410
 -0.409  -0.406  -0.404  -0.403  -0.402  -0.401  -0.394  -0.393
 -0.388  -0.386  -0.386  -0.384  -0.378  -0.378  -0.378  -0.374
 -0.373  -0.373  -0.372  -0.371  -0.368  -0.365  -0.360  -0.359
 -0.354  -0.350  -0.347  -0.343  -0.341  -0.337  -0.332  -0.332
 -0.325  -0.320  -0.311  -0.299  -0.294  -0.292  -0.287  -0.286
 -0.281  -0.279  -0.277  -0.272  -0.262  -0.258  -0.256  -0.245
 -0.235  -0.230  -0.209  -0.140

 Beta MOs
 -- Occupied --
-14.797 -14.661 -10.556 -10.556 -10.520 -10.520 -10.519 -10.513
-10.501 -10.501 -10.500 -10.500 -10.493 -10.493 -10.490 -10.490
-10.480 -10.480 -10.466 -10.466 -10.465 -10.464 -10.463 -10.463
-10.462 -10.457 -10.448 -10.447 -10.445 -10.444 -10.444 -10.443
-10.443 -10.442 -10.442 -10.442 -10.442 -10.442 -10.441 -10.441
-10.440 -10.439 -10.439 -10.439 -10.439 -10.439 -10.434 -10.433
-10.432 -10.432 -10.432 -10.431 -10.431 -10.431 -10.431 -10.429
-10.429 -10.429 -10.428 -10.428 -10.428 -10.426 -10.426 -10.425
-10.425 -10.425 -10.425 -10.424 -10.424 -10.422 -10.422 -10.419
-10.417 -10.414 -10.414 -10.414 -10.413 -10.405 -10.402 -10.401
-10.398 -10.398 -10.397 -10.397  -6.890  -6.889  -1.180  -1.073
 -1.023  -1.019  -0.992  -0.992  -0.977  -0.963  -0.955  -0.946
 -0.934  -0.932  -0.931  -0.913  -0.913  -0.913  -0.898  -0.897
 -0.895  -0.894  -0.879  -0.872  -0.871  -0.870  -0.849  -0.848
 -0.838  -0.829  -0.828  -0.827  -0.826  -0.823  -0.817  -0.815
 -0.809  -0.804  -0.803  -0.792  -0.790  -0.788  -0.784  -0.775
 -0.774  -0.772  -0.772  -0.758  -0.734  -0.725  -0.724  -0.710
 -0.709  -0.706  -0.705  -0.704  -0.696  -0.695  -0.694  -0.687
 -0.679  -0.675  -0.672  -0.669  -0.667  -0.657  -0.656  -0.648
 -0.643  -0.638  -0.625  -0.620  -0.620  -0.619  -0.612  -0.604
 -0.603  -0.593  -0.590  -0.585  -0.579  -0.578  -0.574  -0.572
 -0.569  -0.569  -0.565  -0.561  -0.552  -0.552  -0.549  -0.546
 -0.542  -0.537  -0.536  -0.532  -0.530  -0.525  -0.524  -0.519
 -0.517  -0.512  -0.512  -0.509  -0.505  -0.505  -0.502  -0.498
 -0.496  -0.493  -0.487  -0.485  -0.484  -0.483  -0.483  -0.482
 -0.478  -0.476  -0.474  -0.473  -0.472  -0.472  -0.471  -0.467
 -0.467  -0.466  -0.466  -0.466  -0.465  -0.462  -0.462  -0.462
 -0.462  -0.457  -0.456  -0.455  -0.454  -0.447  -0.445  -0.443
 -0.441  -0.435  -0.435  -0.433  -0.431  -0.431  -0.430  -0.428
 -0.426  -0.421  -0.416  -0.416  -0.415  -0.415  -0.411  -0.409
 -0.408  -0.405  -0.404  -0.401  -0.400  -0.399  -0.393  -0.393
 -0.387  -0.386  -0.386  -0.384  -0.378  -0.376  -0.376  -0.374
 -0.373  -0.373  -0.372  -0.371  -0.367  -0.365  -0.360  -0.359
 -0.356  -0.353  -0.348  -0.346  -0.346  -0.338  -0.338  -0.335
 -0.323  -0.318  -0.310  -0.300  -0.294  -0.293  -0.289  -0.286
 -0.286  -0.277  -0.277  -0.276  -0.272  -0.258  -0.256  -0.250
 -0.238  -0.232  -0.223  -0.209

          Ground-State Mulliken Net Atomic Charges

     Atom                 Charge (a.u.)    Spin (a.u.)
  --------------------------------------------------------
      1 N                    -0.718879      -0.000121
      2 C                     0.308706       0.000037
      3 C                     0.136137       0.000001
      4 C                    -0.201290       0.000000
      5 C                    -0.304604      -0.000001
      6 H                     0.218163       0.000001
      7 C                    -0.246558      -0.000001
      8 H                     0.220757       0.000000
      9 C                    -0.246150      -0.000007
     10 H                     0.225426       0.000003
     11 C                    -0.316846       0.000011
     12 H                     0.265116      -0.000008
     13 C                     0.312563       0.000037
     14 C                    -0.319529       0.000012
     15 H                     0.264000      -0.000009
     16 C                    -0.246334      -0.000004
     17 H                     0.227338       0.000000
     18 C                    -0.247358      -0.000000
     19 H                     0.220827       0.000000
     20 C                    -0.303757      -0.000002
     21 H                     0.218007       0.000001
     22 C                     0.132899       0.000000
     23 C                     0.184447       0.002116
     24 C                    -0.305257      -0.001738
     25 H                     0.226251       0.000412
     26 C                     0.046228       0.004376
     27 C                    -0.305524      -0.001812
     28 H                     0.225062       0.000396
     29 C                     0.043722       0.004805
     30 C                    -0.181148      -0.027358
     31 C                    -0.543550       0.002955
     32 H                     0.226104       0.000431
     33 H                     0.260982      -0.002179
     34 C                    -0.655198       0.000035
     35 C                    -0.541833       0.002472
     36 H                     0.225381       0.000424
     37 H                     0.257481      -0.001666
     38 C                    -0.656193       0.000028
     39 H                     0.251175      -0.000389
     40 H                     0.215776      -0.000011
     41 H                     0.212416      -0.000076
     42 B                     0.538765       0.288348
     43 C                    -0.143123       0.056275
     44 C                    -0.406427      -0.053565
     45 H                     0.223951       0.001992
     46 C                     0.089346       0.084646
     47 C                     0.069220       0.047688
     48 C                    -0.402287      -0.025186
     49 H                     0.195618       0.000401
     50 C                    -0.131044       0.016977
     51 C                     0.187474      -0.054585
     52 C                    -0.405222       0.083558
     53 H                     0.226040      -0.004935
     54 C                    -0.079433       0.023609
     55 C                     0.237135      -0.038620
     56 C                     0.187386      -0.045800
     57 C                    -0.398571       0.073154
     58 H                     0.204976      -0.004389
     59 C                    -0.214852      -0.052247
     60 H                     0.230933       0.002546
     61 C                    -0.358502       0.076744
     62 H                     0.225151      -0.004561
     63 C                    -0.354594       0.068870
     64 H                     0.224850      -0.004067
     65 C                    -0.217113      -0.047647
     66 H                     0.223066       0.002363
     67 C                    -0.139812       0.055208
     68 C                    -0.411705      -0.052959
     69 H                     0.220217       0.001952
     70 C                     0.089268       0.084249
     71 C                     0.068461       0.050264
     72 C                    -0.402923      -0.026920
     73 H                     0.197252       0.000491
     74 C                    -0.128027       0.018992
     75 C                     0.186470      -0.055057
     76 C                    -0.405741       0.084390
     77 H                     0.227090      -0.004968
     78 C                    -0.078728       0.023966
     79 C                     0.237819      -0.039250
     80 C                     0.186520      -0.047112
     81 C                    -0.398439       0.074981
     82 H                     0.208765      -0.004488
     83 C                    -0.215411      -0.052904
     84 H                     0.231310       0.002578
     85 C                    -0.359124       0.077618
     86 H                     0.225013      -0.004612
     87 C                    -0.354637       0.070663
     88 H                     0.224552      -0.004177
     89 C                    -0.218287      -0.048737
     90 H                     0.224149       0.002412
     91 B                     0.509998       0.335159
     92 C                    -0.161775      -0.031999
     93 C                     0.032852       0.007908
     94 C                    -0.289292      -0.019784
     95 H                     0.240554       0.001241
     96 C                     0.123050       0.035402
     97 C                    -0.286691      -0.019634
     98 H                     0.240529       0.001232
     99 C                     0.037353       0.007622
    100 N                    -0.604084      -0.448424
    101 C                     0.293240       0.102095
    102 C                     0.191693      -0.232118
    103 C                    -0.239106       0.038730
    104 C                    -0.302066       0.151179
    105 H                     0.255669      -0.007141
    106 C                    -0.200322      -0.251685
    107 H                     0.269517       0.013495
    108 C                    -0.240505       0.132041
    109 H                     0.271714      -0.005998
    110 C                    -0.261865      -0.183614
    111 H                     0.313949       0.009891
    112 C                     0.298047       0.102061
    113 C                     0.191049      -0.231765
    114 C                    -0.302144       0.151102
    115 H                     0.255775      -0.007144
    116 C                    -0.200622      -0.251975
    117 H                     0.269578       0.013521
    118 C                    -0.240929       0.132436
    119 H                     0.272845      -0.006008
    120 C                    -0.266287      -0.184028
    121 H                     0.313501       0.009894
    122 C                    -0.542547       0.001988
    123 H                     0.226515       0.000610
    124 H                     0.280447      -0.002237
    125 C                    -0.654976      -0.000050
    126 C                    -0.546425       0.002352
    127 H                     0.226957       0.000654
    128 H                     0.283759      -0.002782
    129 C                    -0.654624      -0.000016
    130 H                     0.258734      -0.000369
    131 H                     0.201096      -0.000109
    132 H                     0.229370      -0.000052
    133 H                     0.255937      -0.000304
    134 H                     0.230738      -0.000059
    135 H                     0.200729      -0.000089
    136 H                     0.213123      -0.000005
    137 H                     0.252219      -0.000447
    138 H                     0.213015      -0.000094
    139 C                    -0.607523      -0.022065
    140 C                    -0.606959      -0.022595
    141 C                    -0.611271      -0.000000
    142 C                    -0.607917       0.000000
    143 H                     0.235044       0.000000
    144 H                     0.219661      -0.000000
    145 H                     0.219440       0.000000
    146 H                     0.235887      -0.000000
    147 H                     0.220066       0.000000
    148 H                     0.219795       0.000000
    149 H                     0.249891       0.000800
    150 H                     0.243533      -0.000186
    151 H                     0.242971      -0.000243
    152 H                     0.249071       0.000844
    153 H                     0.243506      -0.000275
    154 H                     0.243762      -0.000285
  --------------------------------------------------------
  Sum of atomic charges =    -0.000000

                    Cartesian Multipole Moments
 -----------------------------------------------------------------
    Charge (ESU x 10^10)
                -0.0000
    Dipole Moment (Debye)
         X     -21.6322      Y     -14.9938      Z     -23.7563
       Tot      35.4560
    Quadrupole Moments (Debye-Ang)
        XX    -206.8547     XY     239.2676     YY    -307.2259
        XZ     289.9604     YZ     266.5939     ZZ    -185.0379

 Total job time:  60462.26s(wall), 263384.74s(cpu)
        *  Thank you very much for using Q-Chem.  Have a nice day.  *
