 Q-Chem 5.1, Q-Chem, Inc., Pleasanton, CA (2018)
 Q-Chem 5.1.1 for Intel X86 EM64T Linux

User input:
--------------------------------------------------------------
$rem
threads 8
jobtype opt
method PBEh-3c
basis def2-mSVP
mem_static      1024
mem_total       8000
sym_ignore      true
unrestricted true
scf_algorithm   diis
scf_max_cycles  250
solvent_method  pcm
geom_opt_tol_energy 25
geom_opt_tol_gradient 75
$end

$pcm
theory  iefpcm
$end

$solvent
dielectric      2.03
$end

$molecule
read uincoords.mol
$end

--------------------------------------------------------------

   14   -3317.8013408813      4.74e-09  Convergence criterion met
 Total energy in the final basis set =    -3317.8013408813
   11   -3317.8064112504      7.48e-09  Convergence criterion met
 Total energy in the final basis set =    -3317.8064112504
   11   -3317.8062095253      7.39e-09  Convergence criterion met
 Total energy in the final basis set =    -3317.8062095253
   11   -3317.8056002178      7.89e-09  Convergence criterion met
 Total energy in the final basis set =    -3317.8056002178
   11   -3317.8061824053      6.42e-09  Convergence criterion met
 Total energy in the final basis set =    -3317.8061824053
   11   -3317.8059595558      7.55e-09  Convergence criterion met
 Total energy in the final basis set =    -3317.8059595558
   11   -3317.8065668788      6.83e-09  Convergence criterion met
 Total energy in the final basis set =    -3317.8065668788
   11   -3317.8063322208      5.71e-09  Convergence criterion met
   11   -3317.8064161167      4.48e-09  Convergence criterion met
 Total energy in the final basis set =    -3317.8064161167
   11   -3317.8064190830      4.39e-09  Convergence criterion met
 Total energy in the final basis set =    -3317.8064190830
   11   -3317.8064086842      4.33e-09  Convergence criterion met
 Total energy in the final basis set =    -3317.8064086842
   11   -3317.8064091811      4.24e-09  Convergence criterion met
 Total energy in the final basis set =    -3317.8064091811
   11   -3317.8064099985      4.21e-09  Convergence criterion met
 Total energy in the final basis set =    -3317.8064099985
   11   -3317.8064087804      4.27e-09  Convergence criterion met
 Total energy in the final basis set =    -3317.8064087804

             Standard Nuclear Orientation (Angstroms)
    I     Atom           X                Y                Z
 ----------------------------------------------------------------
    1      N       0.0814540502    -0.0037234921    -0.0658573402
    2      C       0.1094680401    -0.2355111250     1.3052390700
    3      C       1.2423736156     0.0099909369    -0.8295062613
    4      C       2.4856902296    -0.2544622738    -0.2474414687
    5      C       3.6116431396    -0.2287184055    -1.0652729294
    6      H       4.5796327209    -0.4426366695    -0.6291752104
    7      C       3.5438758081     0.0454006077    -2.4197970147
    8      H       4.4420304188     0.0524638026    -3.0223631858
    9      C       2.3050398469     0.3040184627    -2.9843569369
   10      H       2.2162399102     0.5195851570    -4.0415158517
   11      C       1.1682234938     0.2880411115    -2.2011353408
   12      H       0.2118480229     0.4915446208    -2.6619189349
   13      C       1.3140340768    -0.5161479656     1.9571662897
   14      C       1.2772478571    -0.7502944178     3.3285001732
   15      H       2.2006680385    -0.9802901424     3.8456323420
   16      C       0.1031449510    -0.7117705472     4.0594855827
   17      H       0.1155243014    -0.9021268108     5.1240887769
   18      C      -1.0828577439    -0.4294696002     3.4006491955
   19      H      -2.0182878316    -0.3914476437     3.9440090225
   20      C      -1.0823091776    -0.1939150442     2.0401094747
   21      H      -2.0172886557     0.0228561081     1.5430964358
   22      C      -1.1749063731     0.1261972973    -0.7193228003
   23      C      -1.8201487195    -1.0046473134    -1.1905237118
   24      H      -1.3565186282    -1.9753560121    -1.0521997780
   25      C      -1.7554739939     1.3728352108    -0.8857550069
   26      H      -1.2414216118     2.2512600451    -0.5115641729
   27      C      -2.9838767780     1.4976822797    -1.5259133713
   28      C      -3.0485994398    -0.9033612646    -1.8334650492
   29      C      -3.6387189139     0.3556122522    -2.0068826521
   30      C      -3.6232350602     2.8566793204    -1.6389160751
   31      H      -4.2383612362     2.9135855515    -2.5418663873
   32      H      -2.8495462553     3.6187277583    -1.7578885684
   33      C      -3.6922285129    -2.1542517504    -2.3768017559
   34      H      -4.7778703807    -2.0356914809    -2.4291654693
   35      H      -3.5196668852    -2.9812302961    -1.6832248090
   36      C       2.6385623987    -0.6115822950     1.2203090714
   37      C      -4.4807284951     3.1918610843    -0.4197749778
   38      H      -5.2908653332     2.4731178067    -0.2969213940
   39      H      -4.9273497304     4.1818581115    -0.5165999487
   40      H      -3.8843342035     3.1804438544     0.4932286378
   41      C      -3.1594693818    -2.5379655024    -3.7560598824
   42      H      -3.3657501071    -1.7605075579    -4.4917556275
   43      H      -3.6245749557    -3.4588790643    -4.1092443020
   44      H      -2.0806951113    -2.6962611812    -3.7316703122
   45      C       3.1495353935    -2.0596934780     1.3158703922
   46      H       4.1102170539    -2.1749028789     0.8116286880
   47      H       3.2835766076    -2.3647124997     2.3545947946
   48      H       2.4432221519    -2.7489431136     0.8520967604
   49      C       3.6483845346     0.3467251231     1.8705754481
   50      H       4.6213729041     0.2937053253     1.3817814177
   51      H       3.8059366348     0.1067448157     2.9221035036
   52      H       3.2961666334     1.3763068987     1.8085313733
   53      B      -5.0068769812     0.4811434990    -2.7746680123
   54      C      -6.3601409505     0.2475923885    -2.0383247384
   55      C      -6.3830873315    -0.1241595734    -0.6882568866
   56      H      -5.4493693353    -0.2309203897    -0.1470148169
   57      C      -7.5896654098    -0.3791191821    -0.0567462797
   58      C      -8.7973654663    -0.2368549894    -0.7751924576
   59      C      -8.7889592884     0.1446239262    -2.1022763741
   60      H      -9.7208233776     0.2380199062    -2.6494979905
   61      C      -7.5774684017     0.3780543077    -2.7513545520
   62      C      -7.9272099850    -0.8449273716     1.2927127796
   63      C      -7.2224766370    -1.1923963290     2.4146411209
   64      H      -6.1421850408    -1.1305021415     2.4549843530
   65      C      -9.3304347307    -0.9679523918     1.3258265609
   66      C     -10.0617127247    -1.4266966466     2.4154790274
   67      C      -9.9066592845    -0.6057021890     0.0960104243
   68      C     -11.2659906405    -0.6932615329    -0.0551658158
   69      H     -11.7580274385    -0.4325103769    -0.9843902255
   70      C      -7.9380009666    -1.6549038976     3.5460071335
   71      H      -7.3785280750    -1.9305476739     4.4301905708
   72      C      -9.3085082886    -1.7747777034     3.5616487913
   73      H      -9.8085546371    -2.1413447275     4.4496746694
   74      C     -12.0358817556    -1.1480149890     1.0405695110
   75      H     -13.1095980340    -1.2199916018     0.9253174165
   76      C     -11.4653785527    -1.5072384218     2.2399898298
   77      H     -12.0930631628    -1.8578271744     3.0500929511
   78      C      -4.9976030685     0.8075528765    -4.2979627509
   79      C      -3.7866511548     0.9518784423    -4.9866280534
   80      H      -2.8492597338     0.8607678833    -4.4489847372
   81      C      -3.7866854633     1.1905711822    -6.3509588283
   82      C      -5.0140545935     1.3018831500    -7.0398001794
   83      C      -6.2134291402     1.1725415644    -6.3710371027
   84      H      -7.1481664740     1.2566484520    -6.9138538854
   85      C      -6.2220584052     0.9188399729    -4.9997427383
   86      C      -2.7090893573     1.3385577314    -7.3366583440
   87      C      -1.3397120714     1.3060110150    -7.3078600066
   88      H      -0.7896089970     1.1533761912    -6.3877112634
   89      C      -3.3404860275     1.5340142858    -8.5810796581
   90      C      -2.6758076251     1.6955563506    -9.7922731135
   91      C      -4.7403299428     1.5232849851    -8.4557951201
   92      C      -5.5110188292     1.6860719147    -9.5780530141
   93      H      -6.5938966175     1.6852378633    -9.5355352431
   94      C      -0.6320830440     1.4709983908    -8.5237888812
   95      H       0.4492936629     1.4435611793    -8.4968083882
   96      C      -1.2626248413     1.6601064249    -9.7316313335
   97      H      -0.6768054572     1.7782100949   -10.6349888267
   98      C      -4.8609347601     1.8585224205   -10.8223183135
   99      H      -5.4661827172     1.9880059540   -11.7102512599
  100      C      -3.4901349248     1.8639739174   -10.9393660676
  101      H      -3.0337780103     1.9945090806   -11.9130652363
  102      B      -7.5754541330     0.7237752806    -4.2641807127
  103      C      -8.9093316927     0.8317216485    -5.0970368495
  104      C      -9.5019171237    -0.3261828548    -5.6178358701
  105      C     -10.6071266527    -0.2206326485    -6.4550304986
  106      H     -11.0563153173    -1.1121784282    -6.8794766385
  107      C     -11.1140087551     1.0186914269    -6.7994388780
  108      C     -10.5544425181     2.1666857942    -6.2639540520
  109      H     -10.9634302208     3.1334585554    -6.5360950290
  110      C      -9.4612945187     2.0828351142    -5.4105452107
  111      N     -12.1650678979     1.1149449480    -7.7521301385
  112      C     -13.4859063267     1.1587747345    -7.3264700859
  113      C     -11.8287622230     1.1668834247    -9.1004443510
  114      C     -12.8175110471     1.3160267769   -10.0789423759
  115      C     -12.4234143257     1.3711602314   -11.4125856355
  116      H     -13.1804001810     1.4944126261   -12.1774915056
  117      C     -11.1006353648     1.2779232162   -11.8044108712
  118      H     -10.8347406333     1.3238840821   -12.8518441124
  119      C     -10.1307780231     1.1237640236   -10.8274105383
  120      H      -9.0859897829     1.0416846785   -11.0995560505
  121      C     -10.4870273769     1.0706108256    -9.4940777655
  122      H      -9.7114781645     0.9496088799    -8.7521540083
  123      C     -14.5302304041     1.3059576167    -8.2469977150
  124      C     -15.8335767847     1.3483397580    -7.7624237361
  125      H     -16.6489178407     1.4680048406    -8.4655234075
  126      C     -16.1324492316     1.2464946671    -6.4157825199
  127      H     -17.1594367402     1.2845717697    -6.0784958310
  128      C     -15.0904779552     1.0955175168    -5.5149310629
  129      H     -15.2895120771     1.0105730313    -4.4544330284
  130      C     -13.7843318389     1.0519460178    -5.9622788376
  131      H     -12.9866084051     0.9336163215    -5.2428572572
  132      C      -8.9129292285     3.3453166052    -4.8025954463
  133      H      -7.8417258638     3.2424202086    -4.6070029532
  134      H      -9.0084986851     4.1683962313    -5.5149812170
  135      C      -8.9236412259    -1.6972483236    -5.3768330851
  136      H      -8.2789389242    -1.6983718576    -4.4946492019
  137      H      -9.7328907880    -2.3973615503    -5.1515897748
  138      C     -14.2957656450     1.4269599209    -9.7444852319
  139      C      -8.1372639991    -2.2067141326    -6.5828889705
  140      H      -7.2965979135    -1.5506031172    -6.8112105979
  141      H      -7.7400124162    -3.2049811190    -6.3972949046
  142      H      -8.7680650202    -2.2588209805    -7.4713707718
  143      C      -9.6366503622     3.7076205879    -3.5076069198
  144      H      -9.5294327956     2.9184228204    -2.7628276164
  145      H     -10.7029152344     3.8548854149    -3.6840760125
  146      H      -9.2371987028     4.6268128340    -3.0782013202
  147      C     -14.8168412495     2.7924314124   -10.2251251677
  148      H     -14.2899994476     3.6068200832    -9.7279090146
  149      H     -15.8818774163     2.9047328761   -10.0186560613
  150      H     -14.6800586586     2.9109275838   -11.3007508992
  151      C     -15.0613299340     0.3037964264   -10.4660822678
  152      H     -16.1321186864     0.3635436628   -10.2696246729
  153      H     -14.9306500814     0.3640752914   -11.5469362144
  154      H     -14.7133117184    -0.6759905140   -10.1393051517
 ----------------------------------------------------------------

   11   -3317.8064087631      4.19e-09  Convergence criterion met
 Total energy in the final basis set =    -3317.8064087631
 Final energy is   -3317.80640876305
 **  OPTIMIZATION CONVERGED  **

                    Orbital Energies (a.u.)
 --------------------------------------------------------------

 Alpha MOs
 -- Occupied --
-14.675 -14.674 -10.492 -10.491 -10.490 -10.490 -10.485 -10.484
-10.468 -10.468 -10.467 -10.467 -10.466 -10.466 -10.466 -10.466
-10.466 -10.466 -10.466 -10.465 -10.464 -10.464 -10.463 -10.463
-10.463 -10.463 -10.462 -10.462 -10.460 -10.460 -10.460 -10.460
-10.459 -10.459 -10.457 -10.457 -10.457 -10.457 -10.456 -10.456
-10.449 -10.449 -10.449 -10.449 -10.449 -10.449 -10.444 -10.444
-10.443 -10.443 -10.443 -10.442 -10.442 -10.442 -10.442 -10.442
-10.442 -10.442 -10.440 -10.439 -10.439 -10.438 -10.438 -10.438
-10.438 -10.438 -10.438 -10.438 -10.438 -10.437 -10.435 -10.434
-10.434 -10.434 -10.433 -10.432 -10.423 -10.423 -10.423 -10.423
-10.423 -10.422 -10.422 -10.422  -6.956  -6.954  -1.087  -1.086
 -1.019  -1.019  -0.972  -0.972  -0.965  -0.962  -0.957  -0.956
 -0.951  -0.950  -0.935  -0.935  -0.912  -0.907  -0.907  -0.904
 -0.895  -0.894  -0.872  -0.869  -0.858  -0.857  -0.849  -0.849
 -0.848  -0.848  -0.834  -0.834  -0.828  -0.826  -0.822  -0.816
 -0.815  -0.814  -0.813  -0.808  -0.806  -0.806  -0.790  -0.789
 -0.767  -0.766  -0.738  -0.733  -0.729  -0.723  -0.722  -0.721
 -0.718  -0.717  -0.707  -0.707  -0.706  -0.706  -0.692  -0.691
 -0.688  -0.681  -0.674  -0.668  -0.668  -0.668  -0.652  -0.651
 -0.639  -0.637  -0.636  -0.636  -0.614  -0.614  -0.614  -0.613
 -0.598  -0.597  -0.593  -0.590  -0.587  -0.586  -0.586  -0.578
 -0.576  -0.561  -0.560  -0.555  -0.549  -0.545  -0.535  -0.534
 -0.533  -0.531  -0.530  -0.527  -0.523  -0.522  -0.522  -0.519
 -0.515  -0.512  -0.505  -0.505  -0.504  -0.503  -0.501  -0.497
 -0.497  -0.496  -0.495  -0.494  -0.492  -0.489  -0.489  -0.488
 -0.488  -0.487  -0.487  -0.485  -0.479  -0.479  -0.479  -0.477
 -0.477  -0.475  -0.475  -0.474  -0.472  -0.469  -0.463  -0.460
 -0.456  -0.455  -0.449  -0.449  -0.447  -0.444  -0.444  -0.442
 -0.439  -0.438  -0.436  -0.436  -0.435  -0.429  -0.428  -0.428
 -0.427  -0.425  -0.424  -0.424  -0.421  -0.420  -0.414  -0.414
 -0.410  -0.406  -0.405  -0.405  -0.400  -0.399  -0.398  -0.397
 -0.397  -0.396  -0.395  -0.395  -0.394  -0.392  -0.392  -0.391
 -0.389  -0.387  -0.383  -0.377  -0.376  -0.372  -0.370  -0.370
 -0.367  -0.366  -0.364  -0.363  -0.358  -0.354  -0.351  -0.345
 -0.322  -0.316  -0.298  -0.297  -0.297  -0.296  -0.287  -0.287
 -0.286  -0.282  -0.282  -0.282  -0.281  -0.279  -0.278  -0.264
 -0.260  -0.258  -0.221  -0.220

 Beta MOs
 -- Occupied --
-14.675 -14.674 -10.492 -10.491 -10.490 -10.490 -10.485 -10.484
-10.468 -10.468 -10.467 -10.467 -10.466 -10.466 -10.466 -10.466
-10.466 -10.466 -10.466 -10.465 -10.464 -10.464 -10.463 -10.463
-10.463 -10.463 -10.462 -10.462 -10.460 -10.460 -10.460 -10.460
-10.459 -10.459 -10.457 -10.457 -10.457 -10.457 -10.456 -10.456
-10.449 -10.449 -10.449 -10.449 -10.449 -10.449 -10.444 -10.444
-10.443 -10.443 -10.443 -10.442 -10.442 -10.442 -10.442 -10.442
-10.442 -10.442 -10.440 -10.439 -10.439 -10.438 -10.438 -10.438
-10.438 -10.438 -10.438 -10.438 -10.438 -10.437 -10.435 -10.434
-10.434 -10.434 -10.433 -10.432 -10.423 -10.423 -10.423 -10.423
-10.423 -10.422 -10.422 -10.422  -6.956  -6.954  -1.087  -1.086
 -1.019  -1.019  -0.972  -0.972  -0.965  -0.962  -0.957  -0.956
 -0.951  -0.950  -0.935  -0.935  -0.912  -0.907  -0.907  -0.904
 -0.895  -0.894  -0.872  -0.869  -0.858  -0.857  -0.849  -0.849
 -0.848  -0.848  -0.834  -0.834  -0.828  -0.826  -0.822  -0.816
 -0.815  -0.814  -0.813  -0.808  -0.806  -0.806  -0.790  -0.789
 -0.767  -0.766  -0.738  -0.733  -0.729  -0.723  -0.722  -0.721
 -0.718  -0.717  -0.707  -0.707  -0.706  -0.706  -0.692  -0.691
 -0.688  -0.681  -0.674  -0.668  -0.668  -0.668  -0.652  -0.651
 -0.639  -0.637  -0.636  -0.636  -0.614  -0.614  -0.614  -0.613
 -0.598  -0.597  -0.593  -0.590  -0.587  -0.586  -0.586  -0.578
 -0.576  -0.561  -0.560  -0.555  -0.549  -0.545  -0.535  -0.534
 -0.533  -0.531  -0.530  -0.527  -0.523  -0.522  -0.522  -0.519
 -0.515  -0.512  -0.505  -0.505  -0.504  -0.503  -0.501  -0.497
 -0.497  -0.496  -0.495  -0.494  -0.492  -0.489  -0.489  -0.488
 -0.488  -0.487  -0.487  -0.485  -0.479  -0.479  -0.479  -0.477
 -0.477  -0.475  -0.475  -0.474  -0.472  -0.469  -0.463  -0.460
 -0.456  -0.455  -0.449  -0.449  -0.447  -0.444  -0.444  -0.442
 -0.439  -0.438  -0.436  -0.436  -0.435  -0.429  -0.428  -0.428
 -0.427  -0.425  -0.424  -0.424  -0.421  -0.420  -0.414  -0.414
 -0.410  -0.406  -0.405  -0.405  -0.400  -0.399  -0.398  -0.397
 -0.397  -0.396  -0.395  -0.395  -0.394  -0.392  -0.392  -0.391
 -0.389  -0.387  -0.383  -0.377  -0.376  -0.372  -0.370  -0.370
 -0.367  -0.366  -0.364  -0.363  -0.358  -0.354  -0.351  -0.345
 -0.322  -0.316  -0.298  -0.297  -0.297  -0.296  -0.287  -0.287
 -0.286  -0.282  -0.282  -0.282  -0.281  -0.279  -0.278  -0.264
 -0.260  -0.258  -0.221  -0.220

          Ground-State Mulliken Net Atomic Charges

     Atom                 Charge (a.u.)    Spin (a.u.)
  --------------------------------------------------------
      1 N                    -0.719418      -0.000000
      2 C                     0.310609       0.000000
      3 C                     0.311004       0.000000
      4 C                     0.138007       0.000000
      5 C                    -0.301835      -0.000000
      6 H                     0.219248       0.000000
      7 C                    -0.242652       0.000000
      8 H                     0.222348       0.000000
      9 C                    -0.241613       0.000000
     10 H                     0.222495      -0.000000
     11 C                    -0.313580      -0.000000
     12 H                     0.253720      -0.000000
     13 C                     0.138047      -0.000000
     14 C                    -0.302375       0.000000
     15 H                     0.219440       0.000000
     16 C                    -0.241885       0.000000
     17 H                     0.222365       0.000000
     18 C                    -0.243448      -0.000000
     19 H                     0.224527       0.000000
     20 C                    -0.313734       0.000000
     21 H                     0.255039      -0.000000
     22 C                     0.189312      -0.000000
     23 C                    -0.293868      -0.000000
     24 H                     0.233403       0.000000
     25 C                    -0.310777       0.000000
     26 H                     0.235321       0.000000
     27 C                     0.062792      -0.000000
     28 C                     0.058567       0.000000
     29 C                    -0.216714      -0.000000
     30 C                    -0.555009       0.000000
     31 H                     0.256273      -0.000000
     32 H                     0.240676       0.000000
     33 C                    -0.556579       0.000000
     34 H                     0.256833      -0.000000
     35 H                     0.240979      -0.000000
     36 C                    -0.205549       0.000000
     37 C                    -0.651706      -0.000000
     38 H                     0.240714      -0.000000
     39 H                     0.225761      -0.000000
     40 H                     0.220989       0.000000
     41 C                    -0.651375       0.000000
     42 H                     0.241381       0.000000
     43 H                     0.225483      -0.000000
     44 H                     0.221484      -0.000000
     45 C                    -0.603112       0.000000
     46 H                     0.220738       0.000000
     47 H                     0.220883       0.000000
     48 H                     0.233012       0.000000
     49 C                    -0.612692       0.000000
     50 H                     0.221463      -0.000000
     51 H                     0.221569      -0.000000
     52 H                     0.236762      -0.000000
     53 B                     0.669313      -0.000000
     54 C                    -0.152808       0.000000
     55 C                    -0.398252      -0.000000
     56 H                     0.237872       0.000000
     57 C                     0.106237       0.000000
     58 C                     0.080144       0.000000
     59 C                    -0.387999      -0.000000
     60 H                     0.235764      -0.000000
     61 C                    -0.150759       0.000000
     62 C                     0.190115      -0.000000
     63 C                    -0.390278      -0.000000
     64 H                     0.232978      -0.000000
     65 C                    -0.062879       0.000000
     66 C                     0.239751      -0.000000
     67 C                     0.188906      -0.000000
     68 C                    -0.380580       0.000000
     69 H                     0.232826       0.000000
     70 C                    -0.215566      -0.000000
     71 H                     0.241163      -0.000000
     72 C                    -0.342455       0.000000
     73 H                     0.236717       0.000000
     74 C                    -0.218616       0.000000
     75 H                     0.241685      -0.000000
     76 C                    -0.337872      -0.000000
     77 H                     0.236392       0.000000
     78 C                    -0.151980       0.000000
     79 C                    -0.395426      -0.000000
     80 H                     0.240049      -0.000000
     81 C                     0.105571       0.000000
     82 C                     0.079794      -0.000000
     83 C                    -0.383954      -0.000000
     84 H                     0.240040       0.000000
     85 C                    -0.150587       0.000000
     86 C                     0.190746      -0.000000
     87 C                    -0.390653      -0.000000
     88 H                     0.231227      -0.000000
     89 C                    -0.063513       0.000000
     90 C                     0.239077      -0.000000
     91 C                     0.191237       0.000000
     92 C                    -0.384534       0.000000
     93 H                     0.234557       0.000000
     94 C                    -0.214834       0.000000
     95 H                     0.240715      -0.000000
     96 C                    -0.342583      -0.000000
     97 H                     0.236791      -0.000000
     98 C                    -0.219073      -0.000000
     99 H                     0.240628      -0.000000
    100 C                    -0.337491       0.000000
    101 H                     0.236384       0.000000
    102 B                     0.667612       0.000000
    103 C                    -0.227351      -0.000000
    104 C                     0.056006       0.000000
    105 C                    -0.296563      -0.000000
    106 H                     0.236342       0.000000
    107 C                     0.189088      -0.000000
    108 C                    -0.298656       0.000000
    109 H                     0.234155      -0.000000
    110 C                     0.062698      -0.000000
    111 N                    -0.720284       0.000000
    112 C                     0.315818      -0.000000
    113 C                     0.310857      -0.000000
    114 C                     0.137595       0.000000
    115 C                    -0.301348      -0.000000
    116 H                     0.219915      -0.000000
    117 C                    -0.241292       0.000000
    118 H                     0.222602      -0.000000
    119 C                    -0.243780      -0.000000
    120 H                     0.222040      -0.000000
    121 C                    -0.314247       0.000000
    122 H                     0.255842      -0.000000
    123 C                     0.134826       0.000000
    124 C                    -0.300967      -0.000000
    125 H                     0.219333      -0.000000
    126 C                    -0.242925       0.000000
    127 H                     0.222753       0.000000
    128 C                    -0.242658      -0.000000
    129 H                     0.225609      -0.000000
    130 C                    -0.318310       0.000000
    131 H                     0.253756       0.000000
    132 C                    -0.551070      -0.000000
    133 H                     0.256347      -0.000000
    134 H                     0.240295      -0.000000
    135 C                    -0.555851       0.000000
    136 H                     0.259020      -0.000000
    137 H                     0.241511       0.000000
    138 C                    -0.205901      -0.000000
    139 C                    -0.650037       0.000000
    140 H                     0.237409      -0.000000
    141 H                     0.226228      -0.000000
    142 H                     0.221421       0.000000
    143 C                    -0.648807       0.000000
    144 H                     0.235859      -0.000000
    145 H                     0.221919      -0.000000
    146 H                     0.226055      -0.000000
    147 C                    -0.604670       0.000000
    148 H                     0.234279      -0.000000
    149 H                     0.220835      -0.000000
    150 H                     0.220532      -0.000000
    151 C                    -0.609197      -0.000000
    152 H                     0.221145      -0.000000
    153 H                     0.221158       0.000000
    154 H                     0.235746       0.000000
  --------------------------------------------------------
  Sum of atomic charges =    -0.000000

                    Cartesian Multipole Moments
 -----------------------------------------------------------------
    Charge (ESU x 10^10)
                -0.0000
    Dipole Moment (Debye)
         X      -0.4164      Y      -0.7986      Z       0.0500
       Tot       0.9020
    Quadrupole Moments (Debye-Ang)
        XX    -462.2431     XY       7.2526     YY    -505.2688
        XZ     -22.6362     YZ     -14.5645     ZZ    -445.2795

 Total job time:  68614.41s(wall), 458257.05s(cpu)
        *  Thank you very much for using Q-Chem.  Have a nice day.  *
