 Q-Chem 5.1, Q-Chem, Inc., Pleasanton, CA (2018)
 Q-Chem 5.1.1 for Intel X86 EM64T Linux

User input:
--------------------------------------------------------------
$rem
threads 8
jobtype opt
method PBEh-3c
basis def2-mSVP
mem_static      1024
mem_total       8000
sym_ignore      true
unrestricted true
scf_algorithm	diis
scf_max_cycles	250
solvent_method  pcm
geom_opt_tol_energy 25
geom_opt_tol_gradient 75
$end

$pcm
theory  iefpcm
$end

$solvent
dielectric      2.38
$end

$molecule
read uincoords.mol
$end
--------------------------------------------------------------

   22   -3317.7297779402      7.97e-09  Convergence criterion met
 Total energy in the final basis set =    -3317.7297779402
   19   -3317.7299295578      7.63e-09  Convergence criterion met
 Total energy in the final basis set =    -3317.7299295578
   19   -3317.7296217401      9.51e-09  Convergence criterion met
 Total energy in the final basis set =    -3317.7296217401
   19   -3317.7300141781      9.39e-09  Convergence criterion met
 Total energy in the final basis set =    -3317.7300141781
   19   -3317.7300465004      7.39e-09  Convergence criterion met
 Total energy in the final basis set =    -3317.7300465004
   19   -3317.7295447597      9.31e-09  Convergence criterion met
 Total energy in the final basis set =    -3317.7295447597
   19   -3317.7301572266      9.82e-09  Convergence criterion met
 Total energy in the final basis set =    -3317.7301572266
   23   -3317.7232075484      6.60e-09  Convergence criterion met
   17   -3317.7244939486      7.98e-09  Convergence criterion met
 Total energy in the final basis set =    -3317.7244939486
   18   -3317.7245796284      4.90e-09  Convergence criterion met
 Total energy in the final basis set =    -3317.7245796284
   17   -3317.7245839245      7.02e-09  Convergence criterion met
 Total energy in the final basis set =    -3317.7245839245
   16   -3317.7245778901      9.72e-09  Convergence criterion met
 Total energy in the final basis set =    -3317.7245778901
   17   -3317.7245795223      7.58e-09  Convergence criterion met
 Total energy in the final basis set =    -3317.7245795223
   17   -3317.7245834501      8.20e-09  Convergence criterion met
 Total energy in the final basis set =    -3317.7245834501

             Standard Nuclear Orientation (Angstroms)
    I     Atom           X                Y                Z
 ----------------------------------------------------------------
    1      N       0.1185719418    -1.1348065624     0.7171883543
    2      C      -0.5848504660    -0.3433180466     1.6050471401
    3      C       0.0898341129     0.5202822082     2.4811963443
    4      C       1.5971417800     0.6340987982     2.5074211600
    5      C      -0.6742528912     1.2970530739     3.3433672769
    6      H      -0.1770796953     1.9752186546     4.0251050077
    7      C      -2.0572482121     1.2380440701     3.3624382177
    8      H      -2.6168564514     1.8591973473     4.0484385701
    9      C      -2.7137215508     0.3745673073     2.4938437406
   10      H      -3.7936041527     0.3108102511     2.4936341509
   11      C      -1.9901755963    -0.4083545880     1.6237988607
   12      H      -2.5115074375    -1.0750379792     0.9527716208
   13      C       1.4983765050    -1.1326411979     0.6591487549
   14      C       2.1539407656    -1.9706520232    -0.2593953476
   15      H       1.5806229990    -2.6101941549    -0.9145270984
   16      C       3.5281742162    -1.9842070978    -0.3327397761
   17      H       4.0151318592    -2.6357801503    -1.0455898414
   18      C       4.2786961088    -1.1652227028     0.5024771510
   19      H       5.3588436132    -1.1685928844     0.4511013013
   20      C       3.6291438969    -0.3395696045     1.4039593698
   21      H       4.2244674790     0.2961133849     2.0465447245
   22      C       2.2449291039    -0.2993632292     1.5073104978
   23      C      -0.6165950363    -1.9669248050    -0.1858101462
   24      C      -0.9359853319    -3.2623080402     0.1755041542
   25      H      -0.6121966613    -3.6498133112     1.1354955002
   26      C      -1.6831541540    -4.0597990690    -0.6873952832
   27      C      -1.0224599285    -1.4547706058    -1.4050103029
   28      H      -0.7626188517    -0.4369395141    -1.6744811595
   29      C      -1.7742923032    -2.2385718323    -2.2729955820
   30      C      -2.1251174106    -3.5528447775    -1.9187312684
   31      C      -2.1696593509    -1.6573221031    -3.6062236038
   32      H      -2.2290970692    -0.5687794669    -3.5245384494
   33      H      -3.1697473460    -1.9976113348    -3.8826335126
   34      C      -1.1876015269    -2.0276241669    -4.7157436987
   35      C      -2.0546619970    -5.4509594133    -0.2420963103
   36      H      -1.2576341527    -5.8571433398     0.3866214194
   37      H      -2.1288401848    -6.1119582121    -1.1080109123
   38      C      -3.3720469249    -5.4812513541     0.5295137752
   39      H      -4.1977564111    -5.1358321263    -0.0918320489
   40      H      -3.6059099071    -6.4942756146     0.8588249571
   41      H      -3.3270500201    -4.8431037036     1.4135866404
   42      B      -3.0627867689    -4.4011318414    -2.8812251131
   43      C      -4.5784783623    -4.1420713432    -2.8478724214
   44      C      -5.1437797963    -3.2371743375    -1.9209307298
   45      H      -4.4939704484    -2.7184195071    -1.2233342513
   46      C      -6.4989331966    -3.0112385175    -1.8890378543
   47      C      -7.3491469204    -3.6919759986    -2.8101816570
   48      C      -6.8230088973    -4.5644339759    -3.7267868360
   49      H      -7.4789247690    -5.0701142345    -4.4287166153
   50      C      -5.4386549946    -4.8164671290    -3.7694214550
   51      C      -7.3466817658    -2.1624952252    -1.0493531823
   52      C      -7.1425982182    -1.2895085560    -0.0094986066
   53      H      -6.1519442319    -1.0883219489     0.3795959888
   54      C      -8.6724632731    -2.3637579879    -1.4909442626
   55      C      -9.7937547280    -1.7420566977    -0.9460904755
   56      C      -8.7251083054    -3.2827006474    -2.5579044954
   57      C      -9.9486754861    -3.5918335367    -3.1012629377
   58      H     -10.0481041968    -4.2913538722    -3.9226884729
   59      C      -8.2621595730    -0.6404301472     0.5628995081
   60      H      -8.0950588703     0.0472011974     1.3824498718
   61      C      -9.5500475947    -0.8477555298     0.1237973714
   62      H     -10.3748844637    -0.3278366979     0.5960409765
   63      C     -11.0437845937    -2.0777673116    -1.5236443293
   64      H     -11.9543493377    -1.6297385530    -1.1442987303
   65      C     -11.1021082413    -2.9743575864    -2.5664770158
   66      H     -12.0663897660    -3.2188647917    -2.9947547269
   67      C      -2.4899272769    -5.4320564098    -3.8653705260
   68      C      -1.1096660366    -5.7366829730    -3.8871847849
   69      H      -0.4461089605    -5.2314645306    -3.1919875851
   70      C      -0.6028760994    -6.6616306518    -4.7695986620
   71      C      -1.4801198219    -7.3152290822    -5.6852541566
   72      C      -2.8201438472    -7.0267488246    -5.6916687690
   73      H      -3.4779551117    -7.5272296480    -6.3955529867
   74      C      -3.3610467376    -6.0926761331    -4.7881432051
   75      C       0.7451704833    -7.1850395488    -5.0012599583
   76      C       1.9879688523    -6.9747469311    -4.4581152487
   77      H       2.1472672286    -6.2651636025    -3.6557508099
   78      C       0.6309356594    -8.1331396521    -6.0413100875
   79      C       1.6877553864    -8.8776933792    -6.5580319946
   80      C      -0.7005117953    -8.2460641376    -6.4883768731
   81      C      -0.9881268150    -9.1369496301    -7.4932657627
   82      H      -1.9954843602    -9.2657525177    -7.8707887062
   83      C       3.0830273139    -7.7136228709    -4.9650968643
   84      H       4.0611611026    -7.5443113963    -4.5327768952
   85      C       2.9566671721    -8.6368936122    -5.9782015957
   86      H       3.8263665668    -9.1791334464    -6.3289669066
   87      C       1.3665203222    -9.7891385745    -7.5948456399
   88      H       2.1431722369   -10.3994607045    -8.0397273895
   89      C       0.0675774373    -9.9030614096    -8.0365923239
   90      H      -0.1572409484   -10.6071842715    -8.8281699444
   91      B      -4.8630207549    -5.7934712307    -4.7984729564
   92      C      -5.8156422526    -6.4602951293    -5.8828735137
   93      C      -6.1775384046    -5.7391690465    -7.0339570108
   94      C      -7.0333113373    -6.2988713249    -7.9762361458
   95      H      -7.3240064832    -5.7369000291    -8.8572649106
   96      C      -7.5205819231    -7.5783366549    -7.7891432244
   97      C      -7.1676895269    -8.3133716832    -6.6741658602
   98      H      -7.5638067017    -9.3149086915    -6.5442931375
   99      C      -6.3230752522    -7.7591341068    -5.7173775665
  100      N      -8.4288316215    -8.1362762223    -8.7448582371
  101      C      -9.7841950214    -7.9813441010    -8.5319227545
  102      C     -10.7139439529    -8.5068706050    -9.4441370412
  103      C     -10.2996515765    -9.2542295653   -10.6936531940
  104      C     -12.0647248200    -8.3224335730    -9.1787433709
  105      H     -12.7974550507    -8.7201650788    -9.8692462779
  106      C     -12.5118292107    -7.6431492206    -8.0592352758
  107      H     -13.5722842327    -7.5193225613    -7.8870372262
  108      C     -11.5833213158    -7.1237661632    -7.1652074269
  109      H     -11.9102950127    -6.5878442650    -6.2844739967
  110      C     -10.2361296936    -7.2877922870    -7.3946167728
  111      H      -9.5265982104    -6.8776603714    -6.6915444773
  112      C      -7.9265053164    -8.8018707000    -9.8452448690
  113      C      -8.7930896694    -9.3492830460   -10.8059331333
  114      C      -8.2297930509   -10.0021772903   -11.8944945288
  115      H      -8.8789141663   -10.4309196862   -12.6473792022
  116      C      -6.8605556447   -10.1267449704   -12.0535284263
  117      H      -6.4596187379   -10.6415553651   -12.9159543390
  118      C      -6.0129876527    -9.5849957490   -11.0946869948
  119      H      -4.9400497863    -9.6720822680   -11.1987681814
  120      C      -6.5353638398    -8.9303638347   -10.0023379255
  121      H      -5.8669561498    -8.5121615457    -9.2643113722
  122      C      -6.0317840493    -8.5665268174    -4.4804146414
  123      H      -5.9448996604    -9.6237376482    -4.7457478474
  124      H      -5.0693775222    -8.2747435589    -4.0572916696
  125      C      -7.1248587672    -8.3959999648    -3.4274890567
  126      C      -5.6140170120    -4.3721568036    -7.3159963789
  127      H      -6.3601464178    -3.7692924705    -7.8407270574
  128      H      -5.4009488307    -3.8527865594    -6.3803619065
  129      C      -4.3415139421    -4.4515266384    -8.1562737528
  130      H      -3.5700023785    -5.0231546078    -7.6406260321
  131      H      -4.5309970219    -4.9347758364    -9.1165087583
  132      H      -3.9417065724    -3.4565861426    -8.3549259281
  133      H      -7.2000497067    -7.3560950088    -3.1091737615
  134      H      -6.9149332840    -8.9997750181    -2.5440159677
  135      H      -8.0985623686    -8.6987620287    -3.8170097562
  136      H      -1.4906640399    -1.5830604363    -5.6645201199
  137      H      -1.1434621502    -3.1071101009    -4.8561525725
  138      H      -0.1805017022    -1.6761352434    -4.4863681362
  139      C     -10.8511790250    -8.5119743395   -11.9267883016
  140      C     -10.8887909664   -10.6771434851   -10.6442837119
  141      C       2.0943110679     0.2760827720     3.9200279535
  142      C       1.9873229393     2.0818598032     2.1580318749
  143      H       1.6338525112     2.3493157555     1.1622079404
  144      H       3.0691213684     2.2119648246     2.1793145471
  145      H       1.5568778773     2.7862766456     2.8696452370
  146      H       1.8235003005    -0.7475061154     4.1790077883
  147      H       1.6607622236     0.9390426949     4.6684372807
  148      H       3.1776862519     0.3676871765     3.9929933435
  149      H     -10.4464482313    -7.5022936218   -11.9913828592
  150      H     -11.9379872850    -8.4383482968   -11.8851619029
  151      H     -10.5969871631    -9.0375993041   -12.8472631573
  152      H     -10.5132869306   -11.2272927758    -9.7819423489
  153      H     -10.6323219151   -11.2404252634   -11.5416101072
  154      H     -11.9764627391   -10.6491455889   -10.5788351035
 ----------------------------------------------------------------

   17   -3317.7245835612      8.40e-09  Convergence criterion met
 Total energy in the final basis set =    -3317.7245835612
 Final energy is   -3317.72458356116
 **  OPTIMIZATION CONVERGED  **

                    Orbital Energies (a.u.)
 --------------------------------------------------------------

 Alpha MOs
 -- Occupied --
-14.730 -14.727 -10.519 -10.519 -10.517 -10.517 -10.489 -10.488
-10.487 -10.487 -10.480 -10.480 -10.478 -10.478 -10.464 -10.464
-10.464 -10.464 -10.463 -10.463 -10.462 -10.462 -10.462 -10.462
-10.462 -10.462 -10.462 -10.462 -10.460 -10.460 -10.447 -10.447
-10.447 -10.446 -10.446 -10.446 -10.444 -10.443 -10.443 -10.443
-10.443 -10.443 -10.442 -10.442 -10.442 -10.442 -10.442 -10.442
-10.442 -10.442 -10.442 -10.441 -10.441 -10.441 -10.441 -10.441
-10.441 -10.440 -10.439 -10.439 -10.431 -10.431 -10.429 -10.429
-10.428 -10.428 -10.425 -10.425 -10.424 -10.423 -10.423 -10.423
-10.423 -10.422 -10.419 -10.418 -10.411 -10.410 -10.409 -10.408
-10.399 -10.398 -10.397 -10.397  -6.893  -6.891  -1.127  -1.125
 -0.993  -0.992  -0.989  -0.987  -0.983  -0.982  -0.956  -0.954
 -0.934  -0.933  -0.931  -0.930  -0.914  -0.913  -0.884  -0.882
 -0.882  -0.876  -0.874  -0.872  -0.871  -0.868  -0.859  -0.858
 -0.837  -0.836  -0.830  -0.829  -0.828  -0.827  -0.826  -0.824
 -0.802  -0.800  -0.799  -0.799  -0.791  -0.788  -0.787  -0.784
 -0.784  -0.776  -0.742  -0.740  -0.735  -0.734  -0.713  -0.711
 -0.710  -0.708  -0.706  -0.705  -0.702  -0.697  -0.692  -0.691
 -0.691  -0.690  -0.667  -0.659  -0.657  -0.650  -0.643  -0.640
 -0.640  -0.638  -0.637  -0.636  -0.628  -0.627  -0.622  -0.619
 -0.596  -0.594  -0.576  -0.573  -0.573  -0.570  -0.562  -0.561
 -0.560  -0.560  -0.558  -0.555  -0.554  -0.552  -0.551  -0.545
 -0.545  -0.544  -0.544  -0.528  -0.525  -0.520  -0.518  -0.517
 -0.516  -0.516  -0.508  -0.506  -0.505  -0.504  -0.500  -0.499
 -0.498  -0.497  -0.496  -0.491  -0.489  -0.487  -0.485  -0.483
 -0.479  -0.478  -0.477  -0.475  -0.471  -0.469  -0.469  -0.468
 -0.468  -0.467  -0.464  -0.463  -0.463  -0.460  -0.458  -0.456
 -0.455  -0.455  -0.455  -0.451  -0.447  -0.447  -0.445  -0.444
 -0.443  -0.442  -0.441  -0.436  -0.435  -0.435  -0.428  -0.426
 -0.424  -0.422  -0.422  -0.422  -0.419  -0.416  -0.414  -0.413
 -0.408  -0.406  -0.404  -0.401  -0.401  -0.399  -0.397  -0.396
 -0.395  -0.389  -0.387  -0.385  -0.385  -0.383  -0.382  -0.378
 -0.378  -0.378  -0.377  -0.377  -0.374  -0.374  -0.368  -0.365
 -0.362  -0.361  -0.348  -0.345  -0.337  -0.325  -0.321  -0.320
 -0.319  -0.313  -0.312  -0.310  -0.305  -0.304  -0.299  -0.293
 -0.281  -0.279  -0.276  -0.276  -0.276  -0.269  -0.262  -0.256
 -0.254  -0.245  -0.235  -0.230  -0.140

 Beta MOs
 -- Occupied --
-14.724 -14.721 -10.520 -10.520 -10.518 -10.518 -10.489 -10.489
-10.487 -10.487 -10.478 -10.478 -10.477 -10.476 -10.464 -10.464
-10.463 -10.463 -10.463 -10.463 -10.462 -10.462 -10.462 -10.461
-10.461 -10.461 -10.461 -10.461 -10.460 -10.460 -10.448 -10.447
-10.447 -10.447 -10.446 -10.446 -10.444 -10.443 -10.443 -10.443
-10.443 -10.443 -10.443 -10.442 -10.442 -10.442 -10.442 -10.442
-10.441 -10.441 -10.441 -10.441 -10.440 -10.440 -10.440 -10.440
-10.440 -10.440 -10.439 -10.439 -10.430 -10.430 -10.428 -10.428
-10.427 -10.427 -10.426 -10.426 -10.424 -10.423 -10.423 -10.423
-10.423 -10.422 -10.420 -10.418 -10.411 -10.410 -10.409 -10.408
-10.398 -10.398 -10.396 -10.396  -6.890  -6.888  -1.118  -1.116
 -0.992  -0.992  -0.986  -0.985  -0.981  -0.980  -0.955  -0.953
 -0.933  -0.931  -0.929  -0.928  -0.913  -0.912  -0.884  -0.882
 -0.881  -0.874  -0.873  -0.872  -0.870  -0.867  -0.858  -0.857
 -0.836  -0.835  -0.829  -0.828  -0.827  -0.826  -0.823  -0.822
 -0.799  -0.799  -0.798  -0.797  -0.788  -0.787  -0.786  -0.783
 -0.783  -0.774  -0.741  -0.740  -0.733  -0.731  -0.711  -0.710
 -0.709  -0.707  -0.705  -0.704  -0.701  -0.696  -0.691  -0.690
 -0.690  -0.689  -0.667  -0.656  -0.656  -0.649  -0.640  -0.639
 -0.638  -0.637  -0.636  -0.634  -0.626  -0.625  -0.622  -0.619
 -0.595  -0.593  -0.575  -0.572  -0.571  -0.568  -0.561  -0.558
 -0.556  -0.555  -0.554  -0.554  -0.553  -0.551  -0.550  -0.545
 -0.545  -0.543  -0.543  -0.527  -0.524  -0.519  -0.517  -0.516
 -0.511  -0.510  -0.507  -0.505  -0.505  -0.504  -0.499  -0.498
 -0.498  -0.496  -0.495  -0.491  -0.488  -0.486  -0.483  -0.482
 -0.478  -0.474  -0.473  -0.472  -0.470  -0.468  -0.467  -0.467
 -0.467  -0.466  -0.462  -0.462  -0.462  -0.460  -0.458  -0.456
 -0.454  -0.453  -0.452  -0.450  -0.447  -0.446  -0.445  -0.443
 -0.442  -0.441  -0.440  -0.434  -0.432  -0.431  -0.427  -0.426
 -0.423  -0.422  -0.422  -0.421  -0.418  -0.415  -0.411  -0.410
 -0.405  -0.403  -0.402  -0.400  -0.396  -0.395  -0.394  -0.391
 -0.389  -0.388  -0.386  -0.385  -0.384  -0.382  -0.381  -0.378
 -0.377  -0.376  -0.375  -0.375  -0.373  -0.373  -0.367  -0.365
 -0.361  -0.360  -0.345  -0.339  -0.335  -0.323  -0.317  -0.312
 -0.311  -0.311  -0.306  -0.305  -0.303  -0.301  -0.293  -0.289
 -0.277  -0.276  -0.276  -0.276  -0.275  -0.268  -0.250  -0.238
 -0.232  -0.223  -0.198

          Ground-State Mulliken Net Atomic Charges

     Atom                 Charge (a.u.)    Spin (a.u.)
  --------------------------------------------------------
      1 N                    -0.667299       0.215206
      2 C                     0.303106      -0.042631
      3 C                     0.163603       0.109451
      4 C                    -0.218194      -0.017900
      5 C                    -0.303860      -0.071794
      6 H                     0.236869       0.003416
      7 C                    -0.224106       0.121982
      8 H                     0.245297      -0.006575
      9 C                    -0.243440      -0.061725
     10 H                     0.248491       0.002843
     11 C                    -0.291514       0.085071
     12 H                     0.290239      -0.004712
     13 C                     0.307228      -0.043044
     14 C                    -0.293803       0.085292
     15 H                     0.288971      -0.004708
     16 C                    -0.243746      -0.062022
     17 H                     0.249890       0.002848
     18 C                    -0.224844       0.122280
     19 H                     0.245244      -0.006593
     20 C                    -0.302908      -0.071947
     21 H                     0.236840       0.003425
     22 C                     0.160197       0.109901
     23 C                     0.153409      -0.013509
     24 C                    -0.296983       0.006690
     25 H                     0.232822       0.000065
     26 C                     0.042401       0.003000
     27 C                    -0.299351       0.006668
     28 H                     0.232058       0.000014
     29 C                     0.039376       0.003592
     30 C                    -0.167568      -0.025751
     31 C                    -0.544477       0.003815
     32 H                     0.225601       0.000484
     33 H                     0.270661      -0.002183
     34 C                    -0.655835      -0.000062
     35 C                    -0.542554       0.003333
     36 H                     0.225069       0.000477
     37 H                     0.266692      -0.001675
     38 C                    -0.656683      -0.000085
     39 H                     0.257103      -0.000423
     40 H                     0.222296       0.000004
     41 H                     0.207015      -0.000070
     42 B                     0.525989       0.311911
     43 C                    -0.138025       0.038384
     44 C                    -0.408032      -0.039839
     45 H                     0.210954       0.001219
     46 C                     0.090492       0.066073
     47 C                     0.067806       0.067955
     48 C                    -0.401053      -0.040857
     49 H                     0.208218       0.001287
     50 C                    -0.136159       0.036602
     51 C                     0.187746      -0.050175
     52 C                    -0.405915       0.078677
     53 H                     0.215132      -0.004694
     54 C                    -0.079638       0.023996
     55 C                     0.237180      -0.039266
     56 C                     0.187046      -0.051406
     57 C                    -0.398041       0.080423
     58 H                     0.215042      -0.004784
     59 C                    -0.214599      -0.050396
     60 H                     0.226483       0.002480
     61 C                    -0.358376       0.073037
     62 H                     0.225157      -0.004324
     63 C                    -0.354993       0.075001
     64 H                     0.224732      -0.004450
     65 C                    -0.217134      -0.051006
     66 H                     0.227155       0.002503
     67 C                    -0.135245       0.036214
     68 C                    -0.412802      -0.038019
     69 H                     0.209370       0.001122
     70 C                     0.090385       0.064729
     71 C                     0.067473       0.068868
     72 C                    -0.401945      -0.041153
     73 H                     0.208811       0.001298
     74 C                    -0.132595       0.036960
     75 C                     0.186608      -0.049952
     76 C                    -0.406470       0.078015
     77 H                     0.219133      -0.004626
     78 C                    -0.078627       0.023873
     79 C                     0.237799      -0.039068
     80 C                     0.186254      -0.051774
     81 C                    -0.397679       0.080537
     82 H                     0.217625      -0.004779
     83 C                    -0.215523      -0.050061
     84 H                     0.228036       0.002461
     85 C                    -0.358769       0.072375
     86 H                     0.225069      -0.004283
     87 C                    -0.354866       0.075142
     88 H                     0.224514      -0.004460
     89 C                    -0.218279      -0.051085
     90 H                     0.227794       0.002505
     91 B                     0.523336       0.310910
     92 C                    -0.175899      -0.024989
     93 C                     0.037033       0.003174
     94 C                    -0.295556       0.007066
     95 H                     0.232964       0.000011
     96 C                     0.154468      -0.013980
     97 C                    -0.293158       0.007003
     98 H                     0.233320       0.000031
     99 C                     0.041267       0.003064
    100 N                    -0.664608       0.223349
    101 C                     0.303657      -0.044850
    102 C                     0.162536       0.114549
    103 C                    -0.221079      -0.018794
    104 C                    -0.302890      -0.074834
    105 H                     0.237444       0.003560
    106 C                    -0.223708       0.126807
    107 H                     0.246361      -0.006827
    108 C                    -0.242780      -0.064297
    109 H                     0.249697       0.002954
    110 C                    -0.289781       0.088516
    111 H                     0.290013      -0.004896
    112 C                     0.308309      -0.044944
    113 C                     0.161556       0.114393
    114 C                    -0.303143      -0.074800
    115 H                     0.237648       0.003560
    116 C                    -0.223907       0.126914
    117 H                     0.246484      -0.006838
    118 C                    -0.243292      -0.064541
    119 H                     0.251053       0.002963
    120 C                    -0.293992       0.088789
    121 H                     0.289344      -0.004903
    122 C                    -0.541807       0.003919
    123 H                     0.226369       0.000394
    124 H                     0.270824      -0.001963
    125 C                    -0.654208      -0.000267
    126 C                    -0.545581       0.004380
    127 H                     0.226875       0.000428
    128 H                     0.273859      -0.002503
    129 C                    -0.653759      -0.000246
    130 H                     0.252905      -0.000301
    131 H                     0.207034      -0.000081
    132 H                     0.221901       0.000032
    133 H                     0.250135      -0.000245
    134 H                     0.223864       0.000032
    135 H                     0.206803      -0.000073
    136 H                     0.220166       0.000011
    137 H                     0.258269      -0.000501
    138 H                     0.207701      -0.000092
    139 C                    -0.607870       0.011357
    140 C                    -0.608011       0.011400
    141 C                    -0.609919       0.010579
    142 C                    -0.607358       0.010870
    143 H                     0.242047      -0.000401
    144 H                     0.231418       0.000114
    145 H                     0.231318       0.000118
    146 H                     0.242433      -0.000378
    147 H                     0.231681       0.000067
    148 H                     0.231492       0.000084
    149 H                     0.242820      -0.000400
    150 H                     0.231793       0.000063
    151 H                     0.231441       0.000082
    152 H                     0.242537      -0.000403
    153 H                     0.231759       0.000080
    154 H                     0.231820       0.000080
  --------------------------------------------------------
  Sum of atomic charges =    -0.000000

                    Cartesian Multipole Moments
 -----------------------------------------------------------------
    Charge (ESU x 10^10)
                -0.0000
    Dipole Moment (Debye)
         X      -1.2769      Y       1.6513      Z      -1.3033
       Tot       2.4609
    Quadrupole Moments (Debye-Ang)
        XX    -377.4253     XY      77.1050     YY    -454.9376
        XZ     113.8917     YZ      99.0081     ZZ    -368.7499

 Total job time:  167178.90s(wall), 1138279.90s(cpu)
        *  Thank you very much for using Q-Chem.  Have a nice day.  *
