 Q-Chem 5.1, Q-Chem, Inc., Pleasanton, CA (2018)
 Q-Chem 5.1.1 for Intel X86 EM64T Linux

User input:
--------------------------------------------------------------
$rem
threads 8
jobtype opt
method PBEh-3c
basis def2-mSVP
mem_static      1024
mem_total       8000
sym_ignore      true
unrestricted true
scf_algorithm	diis
scf_max_cycles	250
solvent_method  pcm
geom_opt_tol_energy 25
geom_opt_tol_gradient 75
$end

$pcm
theory  iefpcm
$end
$solvent
dielectric      4.33
$end

$molecule
read uincoords.mol
$end
--------------------------------------------------------------

   13   -3317.8138721480      8.41e-09  Convergence criterion met
 Total energy in the final basis set =    -3317.8138721480
   11   -3317.8188790669      9.85e-09  Convergence criterion met
 Total energy in the final basis set =    -3317.8188790669
   11   -3317.8186179910      9.92e-09  Convergence criterion met
 Total energy in the final basis set =    -3317.8186179910
   12   -3317.8181081008      3.46e-09  Convergence criterion met
 Total energy in the final basis set =    -3317.8181081008
   11   -3317.8187804835      8.74e-09  Convergence criterion met
 Total energy in the final basis set =    -3317.8187804835
   11   -3317.8185049615      9.87e-09  Convergence criterion met
 Total energy in the final basis set =    -3317.8185049615
   11   -3317.8190374445      9.25e-09  Convergence criterion met
 Total energy in the final basis set =    -3317.8190374445
   11   -3317.8188280103      8.56e-09  Convergence criterion met
   11   -3317.8188984903      7.66e-09  Convergence criterion met
 Total energy in the final basis set =    -3317.8188984903
   11   -3317.8189013627      7.65e-09  Convergence criterion met
 Total energy in the final basis set =    -3317.8189013627
   11   -3317.8188939062      7.62e-09  Convergence criterion met
 Total energy in the final basis set =    -3317.8188939062
   11   -3317.8188922041      7.57e-09  Convergence criterion met
 Total energy in the final basis set =    -3317.8188922041
   11   -3317.8188944975      7.62e-09  Convergence criterion met
 Total energy in the final basis set =    -3317.8188944975
   11   -3317.8188960957      7.55e-09  Convergence criterion met
 Total energy in the final basis set =    -3317.8188960957

             Standard Nuclear Orientation (Angstroms)
    I     Atom           X                Y                Z
 ----------------------------------------------------------------
    1      N       0.0818795347     0.0064658872    -0.0643566485
    2      C       0.1121594741    -0.2261887327     1.3064448747
    3      C       1.2419412248     0.0238695007    -0.8291606590
    4      C       2.4870145804    -0.2377179693    -0.2485457353
    5      C       3.6124614048    -0.2086247762    -1.0677122859
    6      H       4.5816002568    -0.4206068196    -0.6330971706
    7      C       3.5422659249     0.0664749731    -2.4224984145
    8      H       4.4398539950     0.0761293320    -3.0260844780
    9      C       2.3017938144     0.3226985659    -2.9858389456
   10      H       2.2107445971     0.5390464078    -4.0427198214
   11      C       1.1655990600     0.3031157881    -2.2008806672
   12      H       0.2087236094     0.5049885487    -2.6615944812
   13      C       1.3186274281    -0.5034261730     1.9572130709
   14      C       1.2842574917    -0.7385269491     3.3288911003
   15      H       2.2087903208    -0.9663225064     3.8451021028
   16      C       0.1102361037    -0.7040548717     4.0612900723
   17      H       0.1244044146    -0.8952453002     5.1258398597
   18      C      -1.0779103909    -0.4252365398     3.4037676443
   19      H      -2.0132264797    -0.3910261994     3.9477200568
   20      C      -1.0793038923    -0.1887663720     2.0428652208
   21      H      -2.0161292096     0.0251424166     1.5478687660
   22      C      -1.1759758895     0.1320777032    -0.7169623298
   23      C      -1.8161404274    -1.0013712240    -1.1892262603
   24      H      -1.3493905886    -1.9709635952    -1.0526206093
   25      C      -1.7611092856     1.3769288796    -0.8815025778
   26      H      -1.2513546748     2.2577466992    -0.5068122762
   27      C      -2.9902207831     1.4973116847    -1.5215587573
   28      C      -3.0449286927    -0.9038454409    -1.8326179874
   29      C      -3.6399293403     0.3530398540    -2.0043733422
   30      C      -3.6349962951     2.8538706765    -1.6329507775
   31      H      -4.2557400259     2.9074541458    -2.5323144529
   32      H      -2.8647397425     3.6185747920    -1.7563793363
   33      C      -3.6834451728    -2.1565769674    -2.3776374155
   34      H      -4.7683062955    -2.0373304332    -2.4433089471
   35      H      -3.5189783349    -2.9809570484    -1.6791228575
   36      C       2.6427321382    -0.5952919371     1.2188824265
   37      C      -4.4869861249     3.1873880591    -0.4094395695
   38      H      -5.2922069204     2.4641288352    -0.2798637908
   39      H      -4.9394115131     4.1747481606    -0.5066042181
   40      H      -3.8847834914     3.1817346576     0.4998731624
   41      C      -3.1353302973    -2.5461379302    -3.7492376299
   42      H      -3.3283333449    -1.7687842320    -4.4888041761
   43      H      -3.6009002117    -3.4655350383    -4.1058332858
   44      H      -2.0577481465    -2.7100554190    -3.7106105175
   45      C       3.1574084943    -2.0421950236     1.3133759809
   46      H       4.1181149178    -2.1536845722     0.8083418328
   47      H       3.2939411118    -2.3458776363     2.3521726124
   48      H       2.4524081189    -2.7336314948     0.8503322461
   49      C       3.6518568034     0.3642157147     1.8686110327
   50      H       4.6242819938     0.3115896569     1.3786591586
   51      H       3.8105132971     0.1229823195     2.9196659658
   52      H       3.2986241386     1.3937537267     1.8075238362
   53      B      -5.0079151124     0.4739058473    -2.7733815494
   54      C      -6.3618493282     0.2408536476    -2.0376722705
   55      C      -6.3852678788    -0.1306498748    -0.6873844885
   56      H      -5.4528998407    -0.2371991931    -0.1438558157
   57      C      -7.5925552901    -0.3864463084    -0.0568106633
   58      C      -8.8001300583    -0.2445008138    -0.7761510460
   59      C      -8.7912547351     0.1374388807    -2.1034742505
   60      H      -9.7237390541     0.2306139731    -2.6495883443
   61      C      -7.5790950632     0.3707146208    -2.7517099025
   62      C      -7.9305051034    -0.8529081163     1.2923725142
   63      C      -7.2257822749    -1.2002449334     2.4149254211
   64      H      -6.1455414151    -1.1372426693     2.4561749610
   65      C      -9.3339199377    -0.9768267003     1.3242082270
   66      C     -10.0657851793    -1.4367019278     2.4134260066
   67      C      -9.9099450175    -0.6142372062     0.0941139378
   68      C     -11.2695685557    -0.7023191956    -0.0583098425
   69      H     -11.7611445945    -0.4411477922    -0.9877230448
   70      C      -7.9422321620    -1.6639014417     3.5457276485
   71      H      -7.3830536154    -1.9394334520     4.4301892579
   72      C      -9.3131815125    -1.7849868480     3.5603994654
   73      H      -9.8139833887    -2.1523399104     4.4477201741
   74      C     -12.0398171367    -1.1583045576     1.0371759118
   75      H     -13.1134574761    -1.2307610533     0.9211522821
   76      C     -11.4696938536    -1.5181009079     2.2372099690
   77      H     -12.0973324918    -1.8696164034     3.0470001292
   78      C      -4.9976184644     0.7945266947    -4.2981507299
   79      C      -3.7859429974     0.9384211614    -4.9859465452
   80      H      -2.8480243822     0.8520717239    -4.4484890104
   81      C      -3.7851577239     1.1717140456    -6.3515667525
   82      C      -5.0122899841     1.2768308409    -7.0424421443
   83      C      -6.2125637493     1.1492676456    -6.3741935306
   84      H      -7.1459779142     1.2306691439    -6.9196806711
   85      C      -6.2218626487     0.9019560934    -5.0015842068
   86      C      -2.7065687329     1.3195161859    -7.3363409455
   87      C      -1.3366487966     1.2921219544    -7.3053334996
   88      H      -0.7870663745     1.1448618170    -6.3839359913
   89      C      -3.3374170766     1.5081095535    -8.5823887670
   90      C      -2.6715972491     1.6675959034    -9.7936128407
   91      C      -4.7376469676     1.4928671045    -8.4591373470
   92      C      -5.5079620999     1.6474892863    -9.5833597355
   93      H      -6.5909296286     1.6412467959    -9.5424194060
   94      C      -0.6281350335     1.4555561165    -8.5214386081
   95      H       0.4533390735     1.4323889349    -8.4927873488
   96      C      -1.2579724694     1.6379150028    -9.7312915419
   97      H      -0.6717992950     1.7550515007   -10.6345842093
   98      C      -4.8564552984     1.8174466246   -10.8276639079
   99      H      -5.4611427240     1.9401953276   -11.7169768422
  100      C      -3.4850074533     1.8283115915   -10.9429357573
  101      H      -3.0274400792     1.9567603280   -11.9163844067
  102      B      -7.5762215803     0.7138386437    -4.2653266309
  103      C      -8.9095406673     0.8284069814    -5.0981958842
  104      C      -9.5059079341    -0.3254370880    -5.6236849539
  105      C     -10.6102844826    -0.2126423485    -6.4613455950
  106      H     -11.0620698899    -1.1014809435    -6.8889414154
  107      C     -11.1126476334     1.0303409416    -6.7997155888
  108      C     -10.5498323367     2.1746011346    -6.2594875683
  109      H     -10.9550294236     3.1445497457    -6.5263717001
  110      C      -9.4567339940     2.0829256603    -5.4064016636
  111      N     -12.1642568619     1.1338261080    -7.7518764555
  112      C     -13.4851975982     1.1686587225    -7.3262128395
  113      C     -11.8283608522     1.1927358292    -9.0999874957
  114      C     -12.8183610262     1.3378002710   -10.0783995472
  115      C     -12.4248241336     1.3989181121   -11.4124039811
  116      H     -13.1826227904     1.5184749652   -12.1771511204
  117      C     -11.1007580740     1.3167864957   -11.8043173574
  118      H     -10.8351425529     1.3676963494   -12.8517119420
  119      C     -10.1291961660     1.1682265143   -10.8274010884
  120      H      -9.0834367181     1.0970398766   -11.0990495824
  121      C     -10.4854666852     1.1082722025    -9.4938366025
  122      H      -9.7079026784     0.9923787660    -8.7530637955
  123      C     -14.5308095160     1.3127483730    -8.2464825197
  124      C     -15.8348241307     1.3465917255    -7.7618281936
  125      H     -16.6509749115     1.4635917386    -8.4644788205
  126      C     -16.1331008347     1.2390832349    -6.4148996850
  127      H     -17.1604233405     1.2704419148    -6.0775649595
  128      C     -15.0899943591     1.0911446401    -5.5140799244
  129      H     -15.2881556043     1.0017854579    -4.4537011337
  130      C     -13.7832086608     1.0561961885    -5.9619061144
  131      H     -12.9855726685     0.9402028466    -5.2418591858
  132      C      -8.9039254356     3.3408984277    -4.7931879521
  133      H      -7.8353505833     3.2297112202    -4.5876643386
  134      H      -8.9872935750     4.1651555209    -5.5056627319
  135      C      -8.9346144529    -1.6997917351    -5.3847346662
  136      H      -8.2804978295    -1.7025892775    -4.5094273992
  137      H      -9.7462996747    -2.3936982169    -5.1494998512
  138      C     -14.2973577943     1.4391327535    -9.7437986567
  139      C      -8.1641121761    -2.2188340020    -6.5969420882
  140      H      -7.3226856331    -1.5679242209    -6.8375424255
  141      H      -7.7703091465    -3.2183161894    -6.4104185718
  142      H      -8.8053343619    -2.2719849428    -7.4778747888
  143      C      -9.6364931022     3.7079627070    -3.5044932474
  144      H      -9.5471211078     2.9147899606    -2.7613636906
  145      H     -10.6989710710     3.8690537070    -3.6918701048
  146      H      -9.2300563729     4.6209869563    -3.0684708109
  147      C     -14.8263601495     2.8027888829   -10.2213119268
  148      H     -14.3045434473     3.6195433402    -9.7221608096
  149      H     -15.8923151276     2.9074295609   -10.0153926902
  150      H     -14.6898482975     2.9233349920   -11.2967578168
  151      C     -15.0572671031     0.3142158017   -10.4686991763
  152      H     -16.1281952036     0.3690578429   -10.2716238821
  153      H     -14.9272152978     0.3797143293   -11.5493193453
  154      H     -14.7044778093    -0.6652312996   -10.1452537066
 ----------------------------------------------------------------

   11   -3317.8188969053      8.44e-09  Convergence criterion met
 Total energy in the final basis set =    -3317.8188969053
 Final energy is   -3317.81889690526
 **  OPTIMIZATION CONVERGED  **

                    Orbital Energies (a.u.)
 --------------------------------------------------------------

 Alpha MOs
 -- Occupied --
-14.677 -14.676 -10.494 -10.494 -10.493 -10.493 -10.486 -10.485
-10.469 -10.469 -10.468 -10.467 -10.466 -10.466 -10.466 -10.466
-10.466 -10.466 -10.466 -10.466 -10.465 -10.465 -10.463 -10.463
-10.462 -10.462 -10.462 -10.462 -10.460 -10.459 -10.459 -10.459
-10.459 -10.459 -10.458 -10.457 -10.457 -10.457 -10.457 -10.456
-10.452 -10.451 -10.451 -10.451 -10.449 -10.449 -10.444 -10.444
-10.444 -10.444 -10.444 -10.444 -10.444 -10.444 -10.444 -10.444
-10.444 -10.443 -10.441 -10.441 -10.440 -10.440 -10.440 -10.440
-10.439 -10.438 -10.438 -10.438 -10.438 -10.438 -10.436 -10.436
-10.436 -10.436 -10.434 -10.433 -10.423 -10.423 -10.423 -10.423
-10.423 -10.423 -10.422 -10.422  -6.956  -6.955  -1.089  -1.088
 -1.019  -1.019  -0.973  -0.973  -0.965  -0.963  -0.959  -0.959
 -0.952  -0.951  -0.935  -0.935  -0.913  -0.908  -0.908  -0.904
 -0.895  -0.894  -0.872  -0.869  -0.858  -0.858  -0.851  -0.850
 -0.848  -0.848  -0.836  -0.836  -0.829  -0.826  -0.822  -0.816
 -0.815  -0.815  -0.815  -0.808  -0.806  -0.806  -0.791  -0.790
 -0.767  -0.767  -0.738  -0.733  -0.728  -0.723  -0.723  -0.722
 -0.719  -0.718  -0.708  -0.707  -0.707  -0.707  -0.693  -0.691
 -0.688  -0.681  -0.675  -0.670  -0.670  -0.669  -0.652  -0.651
 -0.640  -0.638  -0.636  -0.636  -0.616  -0.615  -0.615  -0.615
 -0.598  -0.597  -0.592  -0.589  -0.588  -0.587  -0.585  -0.577
 -0.576  -0.562  -0.561  -0.555  -0.550  -0.545  -0.536  -0.535
 -0.534  -0.532  -0.530  -0.527  -0.524  -0.523  -0.523  -0.520
 -0.515  -0.512  -0.505  -0.504  -0.504  -0.503  -0.502  -0.498
 -0.498  -0.496  -0.496  -0.494  -0.492  -0.490  -0.489  -0.489
 -0.488  -0.488  -0.487  -0.485  -0.480  -0.480  -0.479  -0.478
 -0.478  -0.475  -0.475  -0.474  -0.473  -0.468  -0.463  -0.460
 -0.456  -0.455  -0.450  -0.450  -0.447  -0.445  -0.445  -0.441
 -0.439  -0.438  -0.437  -0.437  -0.436  -0.430  -0.429  -0.428
 -0.428  -0.425  -0.425  -0.424  -0.422  -0.420  -0.416  -0.416
 -0.410  -0.407  -0.406  -0.405  -0.400  -0.399  -0.398  -0.398
 -0.397  -0.396  -0.395  -0.395  -0.394  -0.393  -0.392  -0.392
 -0.389  -0.387  -0.384  -0.377  -0.377  -0.373  -0.372  -0.371
 -0.368  -0.367  -0.365  -0.364  -0.359  -0.355  -0.352  -0.345
 -0.323  -0.317  -0.300  -0.300  -0.298  -0.297  -0.290  -0.289
 -0.287  -0.284  -0.284  -0.283  -0.282  -0.280  -0.279  -0.265
 -0.261  -0.258  -0.223  -0.223

 Beta MOs
 -- Occupied --
-14.677 -14.676 -10.494 -10.494 -10.493 -10.493 -10.486 -10.485
-10.469 -10.469 -10.468 -10.467 -10.466 -10.466 -10.466 -10.466
-10.466 -10.466 -10.466 -10.466 -10.465 -10.465 -10.463 -10.463
-10.462 -10.462 -10.462 -10.462 -10.460 -10.459 -10.459 -10.459
-10.459 -10.459 -10.458 -10.457 -10.457 -10.457 -10.457 -10.456
-10.452 -10.451 -10.451 -10.451 -10.449 -10.449 -10.444 -10.444
-10.444 -10.444 -10.444 -10.444 -10.444 -10.444 -10.444 -10.444
-10.444 -10.443 -10.441 -10.441 -10.440 -10.440 -10.440 -10.440
-10.439 -10.438 -10.438 -10.438 -10.438 -10.438 -10.436 -10.436
-10.436 -10.436 -10.434 -10.433 -10.423 -10.423 -10.423 -10.423
-10.423 -10.423 -10.422 -10.422  -6.956  -6.955  -1.089  -1.088
 -1.019  -1.019  -0.973  -0.973  -0.965  -0.963  -0.959  -0.959
 -0.952  -0.951  -0.935  -0.935  -0.913  -0.908  -0.908  -0.904
 -0.895  -0.894  -0.872  -0.869  -0.858  -0.858  -0.851  -0.850
 -0.848  -0.848  -0.836  -0.836  -0.829  -0.826  -0.822  -0.816
 -0.815  -0.815  -0.815  -0.808  -0.806  -0.806  -0.791  -0.790
 -0.767  -0.767  -0.738  -0.733  -0.728  -0.723  -0.723  -0.722
 -0.719  -0.718  -0.708  -0.707  -0.707  -0.707  -0.693  -0.691
 -0.688  -0.681  -0.675  -0.670  -0.670  -0.669  -0.652  -0.651
 -0.640  -0.638  -0.636  -0.636  -0.616  -0.615  -0.615  -0.615
 -0.598  -0.597  -0.592  -0.589  -0.588  -0.587  -0.585  -0.577
 -0.576  -0.562  -0.561  -0.555  -0.550  -0.545  -0.536  -0.535
 -0.534  -0.532  -0.530  -0.527  -0.524  -0.523  -0.523  -0.520
 -0.515  -0.512  -0.505  -0.504  -0.504  -0.503  -0.502  -0.498
 -0.498  -0.496  -0.496  -0.494  -0.492  -0.490  -0.489  -0.489
 -0.488  -0.488  -0.487  -0.485  -0.480  -0.480  -0.479  -0.478
 -0.478  -0.475  -0.475  -0.474  -0.473  -0.468  -0.463  -0.460
 -0.456  -0.455  -0.450  -0.450  -0.447  -0.445  -0.445  -0.441
 -0.439  -0.438  -0.437  -0.437  -0.436  -0.430  -0.429  -0.428
 -0.428  -0.425  -0.425  -0.424  -0.422  -0.420  -0.416  -0.416
 -0.410  -0.407  -0.406  -0.405  -0.400  -0.399  -0.398  -0.398
 -0.397  -0.396  -0.395  -0.395  -0.394  -0.393  -0.392  -0.392
 -0.389  -0.387  -0.384  -0.377  -0.377  -0.373  -0.372  -0.371
 -0.368  -0.367  -0.365  -0.364  -0.359  -0.355  -0.352  -0.345
 -0.323  -0.317  -0.300  -0.300  -0.298  -0.297  -0.290  -0.289
 -0.287  -0.284  -0.284  -0.283  -0.282  -0.280  -0.279  -0.265
 -0.261  -0.258  -0.223  -0.223

          Ground-State Mulliken Net Atomic Charges

     Atom                 Charge (a.u.)    Spin (a.u.)
  --------------------------------------------------------
      1 N                    -0.717193       0.000000
      2 C                     0.308284      -0.000000
      3 C                     0.308583       0.000000
      4 C                     0.131780      -0.000000
      5 C                    -0.310586       0.000000
      6 H                     0.231270       0.000000
      7 C                    -0.254161      -0.000000
      8 H                     0.232532      -0.000000
      9 C                    -0.251945       0.000000
     10 H                     0.234755       0.000000
     11 C                    -0.322582      -0.000000
     12 H                     0.260562      -0.000000
     13 C                     0.131685      -0.000000
     14 C                    -0.311054      -0.000000
     15 H                     0.231567       0.000000
     16 C                    -0.253346       0.000000
     17 H                     0.232538       0.000000
     18 C                    -0.253338       0.000000
     19 H                     0.236130       0.000000
     20 C                    -0.322311      -0.000000
     21 H                     0.261218      -0.000000
     22 C                     0.190326      -0.000000
     23 C                    -0.300107       0.000000
     24 H                     0.240902       0.000000
     25 C                    -0.315490       0.000000
     26 H                     0.242212      -0.000000
     27 C                     0.058996      -0.000000
     28 C                     0.055346      -0.000000
     29 C                    -0.216146       0.000000
     30 C                    -0.555740      -0.000000
     31 H                     0.256628       0.000000
     32 H                     0.245060      -0.000000
     33 C                    -0.557083      -0.000000
     34 H                     0.257276      -0.000000
     35 H                     0.245271      -0.000000
     36 C                    -0.200670       0.000000
     37 C                    -0.655922       0.000000
     38 H                     0.239021      -0.000000
     39 H                     0.228788       0.000000
     40 H                     0.222976       0.000000
     41 C                    -0.655401       0.000000
     42 H                     0.239441      -0.000000
     43 H                     0.228608       0.000000
     44 H                     0.223216      -0.000000
     45 C                    -0.611227      -0.000000
     46 H                     0.225614       0.000000
     47 H                     0.225819       0.000000
     48 H                     0.232857       0.000000
     49 C                    -0.620770      -0.000000
     50 H                     0.226927       0.000000
     51 H                     0.227089      -0.000000
     52 H                     0.235691       0.000000
     53 B                     0.669246       0.000000
     54 C                    -0.153644       0.000000
     55 C                    -0.399727       0.000000
     56 H                     0.244050       0.000000
     57 C                     0.099528      -0.000000
     58 C                     0.073753       0.000000
     59 C                    -0.389418      -0.000000
     60 H                     0.242055       0.000000
     61 C                    -0.151776       0.000000
     62 C                     0.183421      -0.000000
     63 C                    -0.393966       0.000000
     64 H                     0.244643       0.000000
     65 C                    -0.064311      -0.000000
     66 C                     0.228293       0.000000
     67 C                     0.182264       0.000000
     68 C                    -0.384487      -0.000000
     69 H                     0.244659      -0.000000
     70 C                    -0.225757       0.000000
     71 H                     0.251688       0.000000
     72 C                    -0.346916      -0.000000
     73 H                     0.248553       0.000000
     74 C                    -0.228632      -0.000000
     75 H                     0.252273       0.000000
     76 C                    -0.342518       0.000000
     77 H                     0.248217       0.000000
     78 C                    -0.152603      -0.000000
     79 C                    -0.397419       0.000000
     80 H                     0.246289       0.000000
     81 C                     0.099015       0.000000
     82 C                     0.073555       0.000000
     83 C                    -0.386226       0.000000
     84 H                     0.246530      -0.000000
     85 C                    -0.151658       0.000000
     86 C                     0.184116      -0.000000
     87 C                    -0.394772       0.000000
     88 H                     0.243301       0.000000
     89 C                    -0.064928       0.000000
     90 C                     0.227565       0.000000
     91 C                     0.184660      -0.000000
     92 C                    -0.388820       0.000000
     93 H                     0.246525      -0.000000
     94 C                    -0.225096      -0.000000
     95 H                     0.251382       0.000000
     96 C                    -0.347035       0.000000
     97 H                     0.248658      -0.000000
     98 C                    -0.229302       0.000000
     99 H                     0.251228      -0.000000
    100 C                    -0.342167      -0.000000
    101 H                     0.248263      -0.000000
    102 B                     0.667737      -0.000000
    103 C                    -0.227103       0.000000
    104 C                     0.053381       0.000000
    105 C                    -0.301074      -0.000000
    106 H                     0.243375      -0.000000
    107 C                     0.189917       0.000000
    108 C                    -0.305087      -0.000000
    109 H                     0.241498       0.000000
    110 C                     0.059042      -0.000000
    111 N                    -0.718058      -0.000000
    112 C                     0.313646       0.000000
    113 C                     0.308539       0.000000
    114 C                     0.131410      -0.000000
    115 C                    -0.310218      -0.000000
    116 H                     0.231940       0.000000
    117 C                    -0.252726       0.000000
    118 H                     0.232818      -0.000000
    119 C                    -0.254226      -0.000000
    120 H                     0.234937      -0.000000
    121 C                    -0.323576      -0.000000
    122 H                     0.262985      -0.000000
    123 C                     0.128500      -0.000000
    124 C                    -0.309784       0.000000
    125 H                     0.231438      -0.000000
    126 C                    -0.254417       0.000000
    127 H                     0.232845      -0.000000
    128 C                    -0.252526       0.000000
    129 H                     0.236771      -0.000000
    130 C                    -0.326808      -0.000000
    131 H                     0.259909       0.000000
    132 C                    -0.552102      -0.000000
    133 H                     0.256997       0.000000
    134 H                     0.244555       0.000000
    135 C                    -0.556097       0.000000
    136 H                     0.259101       0.000000
    137 H                     0.245656      -0.000000
    138 C                    -0.201052       0.000000
    139 C                    -0.654250       0.000000
    140 H                     0.235504      -0.000000
    141 H                     0.229259      -0.000000
    142 H                     0.223475      -0.000000
    143 C                    -0.653209       0.000000
    144 H                     0.234828      -0.000000
    145 H                     0.223721      -0.000000
    146 H                     0.228988      -0.000000
    147 C                    -0.612802      -0.000000
    148 H                     0.233812      -0.000000
    149 H                     0.225860       0.000000
    150 H                     0.225705       0.000000
    151 C                    -0.617309      -0.000000
    152 H                     0.226464      -0.000000
    153 H                     0.226533      -0.000000
    154 H                     0.234836       0.000000
  --------------------------------------------------------
  Sum of atomic charges =    -0.000000

                    Cartesian Multipole Moments
 -----------------------------------------------------------------
    Charge (ESU x 10^10)
                -0.0000
    Dipole Moment (Debye)
         X      -0.3973      Y      -0.9120      Z      -0.0040
       Tot       0.9947
    Quadrupole Moments (Debye-Ang)
        XX    -455.4271     XY       7.9541     YY    -504.4143
        XZ     -21.9541     YZ     -15.6433     ZZ    -437.8691

 Total job time:  84267.75s(wall), 583806.67s(cpu)
        *  Thank you very much for using Q-Chem.  Have a nice day.  *
