 Q-Chem 5.1, Q-Chem, Inc., Pleasanton, CA (2018)
 Q-Chem 5.1.1 for Intel X86 EM64T Linux

User input:
--------------------------------------------------------------
$rem
threads 8
jobtype opt
method PBEh-3c
basis def2-mSVP
mem_static      1024
mem_total       8000
sym_ignore      true
unrestricted true
scf_algorithm	diis
scf_max_cycles	250
solvent_method  pcm
geom_opt_tol_energy 25
geom_opt_tol_gradient 75
$end

$pcm
theory  iefpcm
$end

$solvent
dielectric      2.38
$end

$molecule
read uincoords.mol
$end
--------------------------------------------------------------

   14   -3317.8043346327      4.68e-09  Convergence criterion met
 Total energy in the final basis set =    -3317.8043346327
   11   -3317.8093859149      7.97e-09  Convergence criterion met
 Total energy in the final basis set =    -3317.8093859149
   11   -3317.8091736068      7.99e-09  Convergence criterion met
 Total energy in the final basis set =    -3317.8091736068
   11   -3317.8085780102      8.50e-09  Convergence criterion met
 Total energy in the final basis set =    -3317.8085780102
   11   -3317.8091716348      6.94e-09  Convergence criterion met
 Total energy in the final basis set =    -3317.8091716348
   11   -3317.8089408805      8.11e-09  Convergence criterion met
 Total energy in the final basis set =    -3317.8089408805
   11   -3317.8095399198      7.41e-09  Convergence criterion met
 Total energy in the final basis set =    -3317.8095399198
   11   -3317.8093087005      6.39e-09  Convergence criterion met
   11   -3317.8093909134      5.22e-09  Convergence criterion met
 Total energy in the final basis set =    -3317.8093909134
   11   -3317.8093965000      5.12e-09  Convergence criterion met
 Total energy in the final basis set =    -3317.8093965000
   11   -3317.8093880564      5.03e-09  Convergence criterion met
 Total energy in the final basis set =    -3317.8093880564
   11   -3317.8093853953      4.96e-09  Convergence criterion met
 Total energy in the final basis set =    -3317.8093853953
   11   -3317.8093854538      4.93e-09  Convergence criterion met
 Total energy in the final basis set =    -3317.8093854538
   11   -3317.8093831016      5.00e-09  Convergence criterion met
 Total energy in the final basis set =    -3317.8093831016

             Standard Nuclear Orientation (Angstroms)
    I     Atom           X                Y                Z
 ----------------------------------------------------------------
    1      N       0.0815612759    -0.0023590928    -0.0655397759
    2      C       0.1101447562    -0.2343615543     1.3054789989
    3      C       1.2422280070     0.0119138484    -0.8295228785
    4      C       2.4859349853    -0.2521665264    -0.2478908265
    5      C       3.6117197178    -0.2258670391    -1.0661061344
    6      H       4.5799665386    -0.4395340306    -0.6304210696
    7      C       3.5433599346     0.0485054550    -2.4206875939
    8      H       4.4413475913     0.0559880217    -3.0235542693
    9      C       2.3041555179     0.3068429735    -2.9848763791
   10      H       2.2148170198     0.5226161476    -4.0419669910
   11      C       1.1675378297     0.2902779898    -2.2011661735
   12      H       0.2110448832     0.4936182736    -2.6618355342
   13      C       1.3151262663    -0.5145363048     1.9570544851
   14      C       1.2789444679    -0.7489040638     3.3284686524
   15      H       2.2026037560    -0.9786405083     3.8453139101
   16      C       0.1049311764    -0.7109890485     4.0598841320
   17      H       0.1177553819    -0.9015367609     5.1244794031
   18      C      -1.0815453694    -0.4291602411     3.4014419905
   19      H      -2.0168947470    -0.3917363096     3.9450214905
   20      C      -1.0814898963    -0.1934035176     2.0408134256
   21      H      -2.0168731464     0.0229670478     1.5443350595
   22      C      -1.1751609178     0.1269342889    -0.7187476798
   23      C      -1.8195034876    -1.0043088340    -1.1903260863
   24      H      -1.3553815710    -1.9748906762    -1.0525255116
   25      C      -1.7564659578     1.3733317447    -0.8845641144
   26      H      -1.2431752766     2.2521344085    -0.5101504120
   27      C      -2.9850202647     1.4975261860    -1.5246722613
   28      C      -3.0480147847    -0.9035012288    -1.8333643707
   29      C      -3.6389520293     0.3551716293    -2.0062307994
   30      C      -3.6252828575     2.8561437024    -1.6371032416
   31      H      -4.2418895581     2.9125110499    -2.5390880880
   32      H      -2.8521985946     3.6186005408    -1.7572293756
   33      C      -3.6907892876    -2.1545965490    -2.3772250901
   34      H      -4.7762770193    -2.0357730530    -2.4321804700
   35      H      -3.5198663676    -2.9811974500    -1.6828170610
   36      C       2.6394803784    -0.6094670183     1.2197629654
   37      C      -4.4811749396     3.1911046008    -0.4167614106
   38      H      -5.2903857641     2.4715575371    -0.2922632056
   39      H      -4.9288757853     4.1806262069    -0.5135439910
   40      H      -3.8832674655     3.1808018511     0.4952880929
   41      C      -3.1550962746    -2.5393105821    -3.7550777742
   42      H      -3.3587682165    -1.7617619531    -4.4914423898
   43      H      -3.6204291143    -3.4598335217    -4.1090028649
   44      H      -2.0765490275    -2.6988274625    -3.7279619614
   45      C       3.1509423240    -2.0574350169     1.3149886206
   46      H       4.1115316680    -2.1720271483     0.8104262785
   47      H       3.2856116591    -2.3621963123     2.3537121349
   48      H       2.4446969926    -2.7470062681     0.8514722835
   49      C       3.6494315027     0.3488511569     1.8698409026
   50      H       4.6222280676     0.2957137994     1.3806717052
   51      H       3.8072954387     0.1085011173     2.9212347701
   52      H       3.2972087096     1.3785043506     1.8080978483
   53      B      -5.0070132808     0.4801400334    -2.7743421272
   54      C      -6.3605167620     0.2469375514    -2.0382491285
   55      C      -6.3837413525    -0.1248069903    -0.6881457206
   56      H      -5.4503923128    -0.2317424261    -0.1463243285
   57      C      -7.5905692031    -0.3797289965    -0.0569303283
   58      C      -8.7981586071    -0.2372742848    -0.7756627124
   59      C      -8.7894761400     0.1443105313    -2.1027971888
   60      H      -9.7214349689     0.2378064028    -2.6498156139
   61      C      -7.5777477927     0.3775059307    -2.7515973375
   62      C      -7.9283956073    -0.8456744437     1.2924254797
   63      C      -7.2238104851    -1.1933197414     2.4145274662
   64      H      -6.1435172790    -1.1314199869     2.4551587287
   65      C      -9.3316917594    -0.9686121785     1.3251413522
   66      C     -10.0632766660    -1.4275158183     2.4146199262
   67      C      -9.9077099323    -0.6061209375     0.0952353560
   68      C     -11.2671149175    -0.6935170425    -0.0563369493
   69      H     -11.7589293419    -0.4325408888    -0.9856325582
   70      C      -7.9397258336    -1.6559933600     3.5456958048
   71      H      -7.3804385392    -1.9317801732     4.4299687456
   72      C      -9.3103656195    -1.7758551264     3.5610155081
   73      H      -9.8107220743    -2.1425399245     4.4488314495
   74      C     -12.0372629809    -1.1484438992     1.0392690336
   75      H     -13.1109699422    -1.2203141606     0.9237562403
   76      C     -11.4670051896    -1.5079647821     2.2388586525
   77      H     -12.0948116819    -1.8586779365     3.0488286425
   78      C      -4.9973449616     0.8055410427    -4.2979107840
   79      C      -3.7861521149     0.9497816064    -4.9862411199
   80      H      -2.8486949001     0.8594798060    -4.4485918710
   81      C      -3.7858411165     1.1875918648    -6.3508020801
   82      C      -5.0130766533     1.2978554495    -7.0401917959
   83      C      -6.2127248021     1.1688256910    -6.3716908325
   84      H      -7.1471043975     1.2525321718    -6.9151781350
   85      C      -6.2216726151     0.9162319435    -5.0001567553
   86      C      -2.7078996279     1.3356078206    -7.3361511677
   87      C      -1.3384051199     1.3039586375    -7.3067299331
   88      H      -0.7885254230     1.1521953873    -6.3862884923
   89      C      -3.3390219868     1.5299523814    -8.5809492297
   90      C      -2.6739416333     1.6912288891    -9.7920450229
   91      C      -4.7389697913     1.5184077271    -8.4562610298
   92      C      -5.5094370760     1.6798149028    -9.5789949789
   93      H      -6.5923399755     1.6779680380    -9.5369267926
   94      C      -0.6304277470     1.4687755614    -8.5225934945
   95      H       0.4509675374     1.4420876199    -8.4951392578
   96      C      -1.2606641051     1.6567943073    -9.7309076692
   97      H      -0.6746527041     1.7748021633   -10.6341636578
   98      C      -4.8588868708     1.8519339661   -10.8231661635
   99      H      -5.4638947322     1.9802782700   -11.7114403655
  100      C      -3.4879223072     1.8583758340   -10.9396807343
  101      H      -3.0311821875     1.9886221338   -11.9132499648
  102      B      -7.5753683383     0.7226371268    -4.2646037904
  103      C      -8.9090900721     0.8316496029    -5.0975959525
  104      C      -9.5022687224    -0.3256525024    -5.6190949207
  105      C     -10.6074320899    -0.2190090851    -6.4562883557
  106      H     -11.0570009705    -1.1101915384    -6.8811545600
  107      C     -11.1136783591     1.0209247726    -6.7995912790
  108      C     -10.5536180766     2.1683877369    -6.2634459525
  109      H     -10.9620434745     3.1357005358    -6.5346184329
  110      C      -9.4603531056     2.0833007996    -5.4101907601
  111      N     -12.1650667914     1.1182656167    -7.7520326450
  112      C     -13.4858487900     1.1600525545    -7.3261421460
  113      C     -11.8291359187     1.1712880790    -9.1003861606
  114      C     -12.8183741350     1.3190737785   -10.0787282180
  115      C     -12.4246834562     1.3750894787   -11.4125568996
  116      H     -13.1820246650     1.4971750012   -12.1773161281
  117      C     -11.1016794486     1.2843106168   -11.8046520341
  118      H     -10.8360601724     1.3310175831   -12.8521533899
  119      C     -10.1312212281     1.1318485888   -10.8278072507
  120      H      -9.0862595640     1.0521876242   -11.1000463906
  121      C     -10.4872054652     1.0776373864    -9.4943231478
  122      H      -9.7110570802     0.9581065995    -8.7527604177
  123      C     -14.5306730247     1.3060767985    -8.2464579512
  124      C     -15.8340863677     1.3465111712    -7.7616295455
  125      H     -16.6497610631     1.4652083484    -8.4645182165
  126      C     -16.1325620676     1.2438356508    -6.4148212720
  127      H     -17.1595729587     1.2803767600    -6.0773370842
  128      C     -15.0901286332     1.0940309463    -5.5141215000
  129      H     -15.2887458361     1.0084683206    -4.4535731372
  130      C     -13.7839118156     1.0524165334    -5.9618238371
  131      H     -12.9860457350     0.9350092465    -5.2423743606
  132      C      -8.9112862030     3.3451065012    -4.8014705477
  133      H      -7.8406678660     3.2406264678    -4.6034823362
  134      H      -9.0041974552     4.1681726656    -5.5142061552
  135      C      -8.9251416001    -1.6972399207    -5.3783038942
  136      H      -8.2786181851    -1.6984898451    -4.4974384445
  137      H      -9.7347773097    -2.3962531074    -5.1510991239
  138      C     -14.2967308754     1.4279218370    -9.7439854157
  139      C      -8.1417089319    -2.2085784001    -6.5854835188
  140      H      -7.3008913539    -1.5534343020    -6.8161450251
  141      H      -7.7450715509    -3.2070380478    -6.3995793639
  142      H      -8.7744964993    -2.2610082955    -7.4725416488
  143      C      -9.6371876352     3.7088180583    -3.5080879212
  144      H      -9.5337994444     2.9190503802    -2.7633195230
  145      H     -10.7026568613     3.8588673973    -3.6871325484
  146      H      -9.2363845530     4.6269024475    -3.0775563894
  147      C     -14.8196501420     2.7928941995   -10.2241366158
  148      H     -14.2938989281     3.6079252453    -9.7267012982
  149      H     -15.8848837378     2.9034953098   -10.0177140993
  150      H     -14.6830085595     2.9116237841   -11.2997606046
  151      C     -15.0611686453     0.3042117530   -10.4659287009
  152      H     -16.1319506490     0.3629229135   -10.2691264677
  153      H     -14.9308360530     0.3654441636   -11.5467727654
  154      H     -14.7120264059    -0.6754377572   -10.1397637635
 ----------------------------------------------------------------

   11   -3317.8093854145      4.98e-09  Convergence criterion met
 Total energy in the final basis set =    -3317.8093854145
 Final energy is   -3317.80938541455
 **  OPTIMIZATION CONVERGED  **

                    Orbital Energies (a.u.)
 --------------------------------------------------------------

 Alpha MOs
 -- Occupied --
-14.675 -14.674 -10.492 -10.492 -10.491 -10.491 -10.485 -10.484
-10.468 -10.468 -10.467 -10.466 -10.466 -10.466 -10.466 -10.466
-10.466 -10.466 -10.466 -10.465 -10.464 -10.464 -10.463 -10.463
-10.463 -10.463 -10.462 -10.462 -10.460 -10.460 -10.460 -10.460
-10.459 -10.459 -10.457 -10.457 -10.457 -10.457 -10.457 -10.456
-10.450 -10.449 -10.449 -10.449 -10.449 -10.449 -10.444 -10.444
-10.443 -10.443 -10.443 -10.443 -10.442 -10.442 -10.442 -10.442
-10.442 -10.442 -10.440 -10.439 -10.439 -10.438 -10.438 -10.438
-10.438 -10.438 -10.438 -10.438 -10.438 -10.438 -10.435 -10.435
-10.435 -10.434 -10.433 -10.432 -10.423 -10.423 -10.423 -10.423
-10.423 -10.422 -10.422 -10.422  -6.956  -6.954  -1.088  -1.087
 -1.019  -1.019  -0.973  -0.972  -0.965  -0.962  -0.957  -0.957
 -0.951  -0.950  -0.935  -0.935  -0.912  -0.907  -0.907  -0.904
 -0.895  -0.894  -0.872  -0.869  -0.858  -0.857  -0.850  -0.849
 -0.848  -0.848  -0.834  -0.834  -0.828  -0.826  -0.822  -0.815
 -0.815  -0.814  -0.814  -0.808  -0.806  -0.806  -0.790  -0.789
 -0.767  -0.766  -0.738  -0.733  -0.729  -0.723  -0.722  -0.721
 -0.718  -0.717  -0.707  -0.707  -0.707  -0.706  -0.692  -0.691
 -0.688  -0.681  -0.675  -0.668  -0.668  -0.668  -0.652  -0.651
 -0.639  -0.637  -0.636  -0.636  -0.615  -0.614  -0.614  -0.613
 -0.598  -0.597  -0.593  -0.590  -0.587  -0.586  -0.585  -0.577
 -0.576  -0.561  -0.560  -0.555  -0.549  -0.545  -0.535  -0.534
 -0.533  -0.531  -0.530  -0.527  -0.523  -0.522  -0.522  -0.519
 -0.515  -0.511  -0.505  -0.504  -0.504  -0.503  -0.501  -0.497
 -0.497  -0.496  -0.495  -0.494  -0.492  -0.489  -0.489  -0.488
 -0.488  -0.487  -0.487  -0.485  -0.479  -0.479  -0.479  -0.477
 -0.477  -0.475  -0.475  -0.474  -0.472  -0.469  -0.463  -0.460
 -0.456  -0.455  -0.449  -0.449  -0.447  -0.444  -0.444  -0.442
 -0.439  -0.438  -0.436  -0.436  -0.435  -0.429  -0.428  -0.428
 -0.427  -0.425  -0.424  -0.424  -0.421  -0.420  -0.414  -0.414
 -0.410  -0.406  -0.405  -0.405  -0.400  -0.399  -0.398  -0.397
 -0.397  -0.396  -0.395  -0.395  -0.394  -0.392  -0.392  -0.391
 -0.389  -0.387  -0.383  -0.377  -0.376  -0.372  -0.371  -0.370
 -0.368  -0.366  -0.364  -0.363  -0.358  -0.354  -0.351  -0.345
 -0.322  -0.316  -0.298  -0.298  -0.297  -0.296  -0.288  -0.287
 -0.286  -0.282  -0.282  -0.282  -0.281  -0.279  -0.279  -0.264
 -0.261  -0.258  -0.221  -0.221

 Beta MOs
 -- Occupied --
-14.675 -14.674 -10.492 -10.492 -10.491 -10.491 -10.485 -10.484
-10.468 -10.468 -10.467 -10.466 -10.466 -10.466 -10.466 -10.466
-10.466 -10.466 -10.466 -10.465 -10.464 -10.464 -10.463 -10.463
-10.463 -10.463 -10.462 -10.462 -10.460 -10.460 -10.460 -10.460
-10.459 -10.459 -10.457 -10.457 -10.457 -10.457 -10.457 -10.456
-10.450 -10.449 -10.449 -10.449 -10.449 -10.449 -10.444 -10.444
-10.443 -10.443 -10.443 -10.443 -10.442 -10.442 -10.442 -10.442
-10.442 -10.442 -10.440 -10.439 -10.439 -10.438 -10.438 -10.438
-10.438 -10.438 -10.438 -10.438 -10.438 -10.438 -10.435 -10.435
-10.435 -10.434 -10.433 -10.432 -10.423 -10.423 -10.423 -10.423
-10.423 -10.422 -10.422 -10.422  -6.956  -6.954  -1.088  -1.087
 -1.019  -1.019  -0.973  -0.972  -0.965  -0.962  -0.957  -0.957
 -0.951  -0.950  -0.935  -0.935  -0.912  -0.907  -0.907  -0.904
 -0.895  -0.894  -0.872  -0.869  -0.858  -0.857  -0.850  -0.849
 -0.848  -0.848  -0.834  -0.834  -0.828  -0.826  -0.822  -0.815
 -0.815  -0.814  -0.814  -0.808  -0.806  -0.806  -0.790  -0.789
 -0.767  -0.766  -0.738  -0.733  -0.729  -0.723  -0.722  -0.721
 -0.718  -0.717  -0.707  -0.707  -0.707  -0.706  -0.692  -0.691
 -0.688  -0.681  -0.675  -0.668  -0.668  -0.668  -0.652  -0.651
 -0.639  -0.637  -0.636  -0.636  -0.615  -0.614  -0.614  -0.613
 -0.598  -0.597  -0.593  -0.590  -0.587  -0.586  -0.585  -0.577
 -0.576  -0.561  -0.560  -0.555  -0.549  -0.545  -0.535  -0.534
 -0.533  -0.531  -0.530  -0.527  -0.523  -0.522  -0.522  -0.519
 -0.515  -0.511  -0.505  -0.504  -0.504  -0.503  -0.501  -0.497
 -0.497  -0.496  -0.495  -0.494  -0.492  -0.489  -0.489  -0.488
 -0.488  -0.487  -0.487  -0.485  -0.479  -0.479  -0.479  -0.477
 -0.477  -0.475  -0.475  -0.474  -0.472  -0.469  -0.463  -0.460
 -0.456  -0.455  -0.449  -0.449  -0.447  -0.444  -0.444  -0.442
 -0.439  -0.438  -0.436  -0.436  -0.435  -0.429  -0.428  -0.428
 -0.427  -0.425  -0.424  -0.424  -0.421  -0.420  -0.414  -0.414
 -0.410  -0.406  -0.405  -0.405  -0.400  -0.399  -0.398  -0.397
 -0.397  -0.396  -0.395  -0.395  -0.394  -0.392  -0.392  -0.391
 -0.389  -0.387  -0.383  -0.377  -0.376  -0.372  -0.371  -0.370
 -0.368  -0.366  -0.364  -0.363  -0.358  -0.354  -0.351  -0.345
 -0.322  -0.316  -0.298  -0.298  -0.297  -0.296  -0.288  -0.287
 -0.286  -0.282  -0.282  -0.282  -0.281  -0.279  -0.279  -0.264
 -0.261  -0.258  -0.221  -0.221

          Ground-State Mulliken Net Atomic Charges

     Atom                 Charge (a.u.)    Spin (a.u.)
  --------------------------------------------------------
      1 N                    -0.718888      -0.000000
      2 C                     0.310108      -0.000000
      3 C                     0.310471       0.000000
      4 C                     0.136651       0.000000
      5 C                    -0.303924      -0.000000
      6 H                     0.222049      -0.000000
      7 C                    -0.245481       0.000000
      8 H                     0.224803       0.000000
      9 C                    -0.244144       0.000000
     10 H                     0.225424      -0.000000
     11 C                    -0.315724       0.000000
     12 H                     0.255357      -0.000000
     13 C                     0.136640       0.000000
     14 C                    -0.304448      -0.000000
     15 H                     0.222270       0.000000
     16 C                    -0.244701      -0.000000
     17 H                     0.224818      -0.000000
     18 C                    -0.245888      -0.000000
     19 H                     0.227327       0.000000
     20 C                    -0.315800       0.000000
     21 H                     0.256537       0.000000
     22 C                     0.189451       0.000000
     23 C                    -0.295423      -0.000000
     24 H                     0.235280      -0.000000
     25 C                    -0.311968      -0.000000
     26 H                     0.237079       0.000000
     27 C                     0.061846       0.000000
     28 C                     0.057751       0.000000
     29 C                    -0.216568      -0.000000
     30 C                    -0.555218      -0.000000
     31 H                     0.256441       0.000000
     32 H                     0.241726       0.000000
     33 C                    -0.556738       0.000000
     34 H                     0.257006       0.000000
     35 H                     0.242008      -0.000000
     36 C                    -0.204442      -0.000000
     37 C                    -0.652761      -0.000000
     38 H                     0.240372       0.000000
     39 H                     0.226520       0.000000
     40 H                     0.221430       0.000000
     41 C                    -0.652406       0.000000
     42 H                     0.241010      -0.000000
     43 H                     0.226259       0.000000
     44 H                     0.221872       0.000000
     45 C                    -0.605060      -0.000000
     46 H                     0.221837       0.000000
     47 H                     0.221995      -0.000000
     48 H                     0.233111       0.000000
     49 C                    -0.614643       0.000000
     50 H                     0.222696       0.000000
     51 H                     0.222817       0.000000
     52 H                     0.236668      -0.000000
     53 B                     0.669344       0.000000
     54 C                    -0.152980       0.000000
     55 C                    -0.398608      -0.000000
     56 H                     0.239286      -0.000000
     57 C                     0.104696       0.000000
     58 C                     0.078683      -0.000000
     59 C                    -0.388323       0.000000
     60 H                     0.237212      -0.000000
     61 C                    -0.150995      -0.000000
     62 C                     0.188572       0.000000
     63 C                    -0.391222      -0.000000
     64 H                     0.235766       0.000000
     65 C                    -0.063156      -0.000000
     66 C                     0.237087       0.000000
     67 C                     0.187380      -0.000000
     68 C                    -0.381578       0.000000
     69 H                     0.235662       0.000000
     70 C                    -0.218051       0.000000
     71 H                     0.243705       0.000000
     72 C                    -0.343602      -0.000000
     73 H                     0.239565      -0.000000
     74 C                    -0.221059       0.000000
     75 H                     0.244247      -0.000000
     76 C                    -0.339061      -0.000000
     77 H                     0.239237      -0.000000
     78 C                    -0.152126       0.000000
     79 C                    -0.395880       0.000000
     80 H                     0.241465      -0.000000
     81 C                     0.104068       0.000000
     82 C                     0.078396      -0.000000
     83 C                    -0.384453       0.000000
     84 H                     0.241442       0.000000
     85 C                    -0.150815      -0.000000
     86 C                     0.189232      -0.000000
     87 C                    -0.391679      -0.000000
     88 H                     0.234080       0.000000
     89 C                    -0.063801       0.000000
     90 C                     0.236416      -0.000000
     91 C                     0.189732       0.000000
     92 C                    -0.385526       0.000000
     93 H                     0.237241      -0.000000
     94 C                    -0.217326      -0.000000
     95 H                     0.243288       0.000000
     96 C                    -0.343729       0.000000
     97 H                     0.239648       0.000000
     98 C                    -0.221532      -0.000000
     99 H                     0.243175      -0.000000
    100 C                    -0.338694       0.000000
    101 H                     0.239246       0.000000
    102 B                     0.667716      -0.000000
    103 C                    -0.227284       0.000000
    104 C                     0.055278      -0.000000
    105 C                    -0.297712       0.000000
    106 H                     0.238115       0.000000
    107 C                     0.189186       0.000000
    108 C                    -0.300240      -0.000000
    109 H                     0.236015      -0.000000
    110 C                     0.061808       0.000000
    111 N                    -0.719759      -0.000000
    112 C                     0.315358      -0.000000
    113 C                     0.310353       0.000000
    114 C                     0.136231      -0.000000
    115 C                    -0.303466       0.000000
    116 H                     0.222727      -0.000000
    117 C                    -0.244102      -0.000000
    118 H                     0.225069       0.000000
    119 C                    -0.246284       0.000000
    120 H                     0.225058      -0.000000
    121 C                    -0.316416       0.000000
    122 H                     0.257494      -0.000000
    123 C                     0.133422       0.000000
    124 C                    -0.303076      -0.000000
    125 H                     0.222155      -0.000000
    126 C                    -0.245749       0.000000
    127 H                     0.225188       0.000000
    128 C                    -0.245088      -0.000000
    129 H                     0.228303       0.000000
    130 C                    -0.320362       0.000000
    131 H                     0.255255       0.000000
    132 C                    -0.551336      -0.000000
    133 H                     0.256570       0.000000
    134 H                     0.241326       0.000000
    135 C                    -0.555953      -0.000000
    136 H                     0.259140       0.000000
    137 H                     0.242509      -0.000000
    138 C                    -0.204787       0.000000
    139 C                    -0.651110      -0.000000
    140 H                     0.237035       0.000000
    141 H                     0.226984      -0.000000
    142 H                     0.221885       0.000000
    143 C                    -0.649908       0.000000
    144 H                     0.235655       0.000000
    145 H                     0.222321       0.000000
    146 H                     0.226795      -0.000000
    147 C                    -0.606616      -0.000000
    148 H                     0.234310       0.000000
    149 H                     0.221966       0.000000
    150 H                     0.221703       0.000000
    151 C                    -0.611166       0.000000
    152 H                     0.222348      -0.000000
    153 H                     0.222378       0.000000
    154 H                     0.235681       0.000000
  --------------------------------------------------------
  Sum of atomic charges =    -0.000000

                    Cartesian Multipole Moments
 -----------------------------------------------------------------
    Charge (ESU x 10^10)
                -0.0000
    Dipole Moment (Debye)
         X      -0.4130      Y      -0.8220      Z       0.0399
       Tot       0.9208
    Quadrupole Moments (Debye-Ang)
        XX    -460.7450     XY       7.3984     YY    -505.0484
        XZ     -22.5475     YZ     -14.8164     ZZ    -443.6406

 Total job time:  67435.38s(wall), 452032.63s(cpu)
        *  Thank you very much for using Q-Chem.  Have a nice day.  *
