 Q-Chem 5.1, Q-Chem, Inc., Pleasanton, CA (2018)
 Q-Chem 5.1.1 for Intel X86 EM64T Linux

User input:
--------------------------------------------------------------
$rem
threads 8
jobtype opt
method PBEh-3c
basis def2-mSVP
mem_static      1024
mem_total       8000
sym_ignore      true
unrestricted true
scf_algorithm   diis
scf_max_cycles  250
solvent_method  pcm
geom_opt_tol_energy 25
geom_opt_tol_gradient 75
$end

$pcm
theory  iefpcm
$end

$solvent
dielectric      1.0001
$end

$molecule
read uincoords.mol
$end

--------------------------------------------------------------

   46   -3317.7004180361      4.48e-09  Convergence criterion met
 Total energy in the final basis set =    -3317.7004180361
   22   -3317.7012999639      7.85e-09  Convergence criterion met
 Total energy in the final basis set =    -3317.7012999639
   22   -3317.7010121742      6.67e-09  Convergence criterion met
 Total energy in the final basis set =    -3317.7010121742
   17   -3317.7012615721      7.80e-09  Convergence criterion met
 Total energy in the final basis set =    -3317.7012615721
   16   -3317.7013861219      8.77e-09  Convergence criterion met
 Total energy in the final basis set =    -3317.7013861219
   20   -3317.7012809201      8.33e-09  Convergence criterion met
 Total energy in the final basis set =    -3317.7012809201
   20   -3317.7014626071      6.88e-09  Convergence criterion met
 Total energy in the final basis set =    -3317.7014626071
   20   -3317.7014543783      3.23e-09  Convergence criterion met
 Total energy in the final basis set =    -3317.7014543783
   18   -3317.7014772382      9.34e-09  Convergence criterion met
 Total energy in the final basis set =    -3317.7014772382
   13   -3317.7014921494      9.18e-09  Convergence criterion met
 Total energy in the final basis set =    -3317.7014921494
   17   -3317.7014857534      6.63e-09  Convergence criterion met
 Total energy in the final basis set =    -3317.7014857534
   12   -3317.7014876982      3.84e-09  Convergence criterion met
 Total energy in the final basis set =    -3317.7014876982
   16   -3317.7014884279      9.19e-09  Convergence criterion met
 Total energy in the final basis set =    -3317.7014884279

             Standard Nuclear Orientation (Angstroms)
    I     Atom           X                Y                Z
 ----------------------------------------------------------------
    1      N       0.1192876033    -1.1453472983     0.7180196784
    2      C      -0.5650091326    -0.4693599541     1.7089307963
    3      C       0.1107024594     0.3993426265     2.5794598958
    4      C       1.5955373271     0.6633562900     2.4692272898
    5      C      -0.6342926803     1.0495898091     3.5547111203
    6      H      -0.1364249544     1.7283902517     4.2349568824
    7      C      -1.9999773749     0.8670179979     3.6851218063
    8      H      -2.5457203931     1.3913857623     4.4574194302
    9      C      -2.6590517547     0.0113012278     2.8112768032
   10      H      -3.7269232390    -0.1403864037     2.8913519284
   11      C      -1.9551131846    -0.6487142561     1.8313933877
   12      H      -2.4770505035    -1.3065293353     1.1522184524
   13      C       1.4819544057    -1.0146168111     0.5422360637
   14      C       2.1222420187    -1.7588178396    -0.4641157694
   15      H       1.5496563508    -2.4343265529    -1.0826391791
   16      C       3.4765440159    -1.6320987230    -0.6678250362
   17      H       3.9523921431    -2.2111783063    -1.4473456581
   18      C       4.2220652600    -0.7663814991     0.1229429906
   19      H       5.2863618904    -0.6574744735    -0.0334459035
   20      C       3.5898022871    -0.0438991705     1.1197034090
   21      H       4.1827856029     0.6237275180     1.7313216929
   22      C       2.2262065343    -0.1479669475     1.3580896974
   23      C      -0.6210145550    -1.9776236386    -0.1815422767
   24      C      -0.9279353691    -3.2772030926     0.1749129155
   25      H      -0.5919596537    -3.6690580156     1.1288723159
   26      C      -1.6800284617    -4.0723860335    -0.6851845229
   27      C      -1.0409261273    -1.4592710563    -1.3933907239
   28      H      -0.7903020901    -0.4379871287    -1.6581526771
   29      C      -1.7920274905    -2.2430582306    -2.2611603136
   30      C      -2.1328357528    -3.5612984445    -1.9110276752
   31      C      -2.1985323612    -1.6590947124    -3.5895196513
   32      H      -2.2437493790    -0.5696082322    -3.5090484601
   33      H      -3.2063029868    -1.9877615379    -3.8502691603
   34      C      -1.2354525341    -2.0448924309    -4.7103682292
   35      C      -2.0482548486    -5.4652602493    -0.2440483672
   36      H      -1.2561122383    -5.8685428610     0.3929314539
   37      H      -2.1108810613    -6.1253124495    -1.1111188689
   38      C      -3.3745845800    -5.4976317038     0.5121877537
   39      H      -4.1934535997    -5.1535613224    -0.1186963211
   40      H      -3.6105050829    -6.5109256553     0.8387144004
   41      H      -3.3411443516    -4.8601080237     1.3972928420
   42      B      -3.0692998965    -4.4118654687    -2.8733916906
   43      C      -4.5815087759    -4.1412253289    -2.8501821737
   44      C      -5.1490241487    -3.2284179274    -1.9325620991
   45      H      -4.5017163062    -2.7100977315    -1.2321939823
   46      C      -6.5021365540    -2.9938029634    -1.9131479845
   47      C      -7.3486069485    -3.6743477443    -2.8367759652
   48      C      -6.8206128285    -4.5541819496    -3.7441719870
   49      H      -7.4735429287    -5.0596697647    -4.4490564486
   50      C      -5.4379503037    -4.8151195691    -3.7745377067
   51      C      -7.3515731648    -2.1357137061    -1.0851762500
   52      C      -7.1510976799    -1.2568107001    -0.0505939341
   53      H      -6.1617841023    -1.0563781038     0.3419991713
   54      C      -8.6749583258    -2.3327281167    -1.5345367680
   55      C      -9.7967198227    -1.7031052568    -1.0011874138
   56      C      -8.7238599800    -3.2567237657    -2.5967796818
   57      C      -9.9445413979    -3.5619766531    -3.1469191070
   58      H     -10.0405430884    -4.2648481472    -3.9657594889
   59      C      -8.2707780157    -0.5994781846     0.5103872006
   60      H      -8.1063296708     0.0934407201     1.3259917405
   61      C      -9.5559691448    -0.8040231517     0.0645113186
   62      H     -10.3813832347    -0.2774346853     0.5280816614
   63      C     -11.0435396081    -2.0362058072    -1.5856590306
   64      H     -11.9547111066    -1.5821662648    -1.2152801535
   65      C     -11.0985775746    -2.9372310767    -2.6237794326
   66      H     -12.0610263269    -3.1790773948    -3.0575968701
   67      C      -2.4927877070    -5.4531527367    -3.8422300717
   68      C      -1.1152712765    -5.7702766918    -3.8486893399
   69      H      -0.4531421921    -5.2633094372    -3.1533131068
   70      C      -0.6098800469    -6.7117090198    -4.7130492101
   71      C      -1.4839301585    -7.3666831701    -5.6294513283
   72      C      -2.8198336972    -7.0634256876    -5.6540866811
   73      H      -3.4756739589    -7.5642785460    -6.3595968169
   74      C      -3.3606455838    -6.1152926788    -4.7658170825
   75      C       0.7332296269    -7.2579875696    -4.9187248242
   76      C       1.9701750888    -7.0617191265    -4.3592062546
   77      H       2.1282165348    -6.3441130844    -3.5638896996
   78      C       0.6192662546    -8.2201263322    -5.9452190687
   79      C       1.6702658077    -8.9913436926    -6.4324720534
   80      C      -0.7073468866    -8.3202501772    -6.4079992556
   81      C      -0.9948667260    -9.2247892682    -7.3995079420
   82      H      -1.9994650047    -9.3458145775    -7.7865154797
   83      C       3.0597676680    -7.8269553096    -4.8363043556
   84      H       4.0335668439    -7.6689816564    -4.3902036505
   85      C       2.9331781469    -8.7632461296    -5.8362207980
   86      H       3.7984020213    -9.3268872014    -6.1633041782
   87      C       1.3487066959    -9.9155102543    -7.4569929951
   88      H       2.1211586770   -10.5465955824    -7.8794345259
   89      C       0.0550472039   -10.0168756771    -7.9145107525
   90      H      -0.1701529803   -10.7322919410    -8.6957197345
   91      B      -4.8584440513    -5.8015628872    -4.7905470531
   92      C      -5.8066729795    -6.4646422533    -5.8812536041
   93      C      -6.1552973388    -5.7423820640    -7.0357670229
   94      C      -7.0081151275    -6.2976147362    -7.9827463724
   95      H      -7.2890312816    -5.7346441263    -8.8662576342
   96      C      -7.5075162893    -7.5725871333    -7.7968867946
   97      C      -7.1675059754    -8.3080975251    -6.6781932254
   98      H      -7.5728519498    -9.3059335070    -6.5485286230
   99      C      -6.3242213509    -7.7594119774    -5.7173757501
  100      N      -8.4167361911    -8.1225576468    -8.7563817110
  101      C      -9.7713493095    -7.9539196639    -8.5504338214
  102      C     -10.7025720693    -8.4636329531    -9.4693219827
  103      C     -10.2901455764    -9.2035819108   -10.7246764762
  104      C     -12.0520058826    -8.2645449758    -9.2094495231
  105      H     -12.7854523081    -8.6494203436    -9.9063482780
  106      C     -12.4973619264    -7.5865983943    -8.0891097942
  107      H     -13.5570455271    -7.4512694481    -7.9216530604
  108      C     -11.5674071259    -7.0832343478    -7.1887137871
  109      H     -11.8920796568    -6.5481482653    -6.3067452157
  110      C     -10.2213120199    -7.2613100208    -7.4123974249
  111      H      -9.5083631994    -6.8639770154    -6.7055443598
  112      C      -7.9174577673    -8.7958905779    -9.8531495452
  113      C      -8.7840548852    -9.3306833199   -10.8202636068
  114      C      -8.2221443799    -9.9938964662   -11.9029600642
  115      H      -8.8719194940   -10.4124859040   -12.6610845696
  116      C      -6.8544320163   -10.1406482625   -12.0511790026
  117      H      -6.4547115567   -10.6629650447   -12.9095019421
  118      C      -6.0072873426    -9.6102561655   -11.0867928197
  119      H      -4.9350720363    -9.7138318277   -11.1819095679
  120      C      -6.5278925660    -8.9460502570    -9.9997202725
  121      H      -5.8613777527    -8.5360655348    -9.2554483039
  122      C      -6.0445502977    -8.5655731021    -4.4772128883
  123      H      -5.9784225936    -9.6257708967    -4.7372026280
  124      H      -5.0749318914    -8.2894979013    -4.0602536188
  125      C      -7.1304478920    -8.3670310464    -3.4219079715
  126      C      -5.5807807985    -4.3791988297    -7.3128420431
  127      H      -6.3090400105    -3.7805751003    -7.8669902420
  128      H      -5.3987495733    -3.8518336500    -6.3752345948
  129      C      -4.2817637133    -4.4687773410    -8.1102731751
  130      H      -3.5271113084    -5.0321411308    -7.5623233934
  131      H      -4.4395641764    -4.9649806714    -9.0695492874
  132      H      -3.8766895759    -3.4761882760    -8.3097727400
  133      H      -7.1816190773    -7.3248023531    -3.1072531854
  134      H      -6.9315769221    -8.9720747659    -2.5368146537
  135      H      -8.1119204386    -8.6499691794    -3.8068542694
  136      H      -1.5454507133    -1.5987362324    -5.6560132332
  137      H      -1.2061618441    -3.1249718131    -4.8489739560
  138      H      -0.2211983173    -1.7047774347    -4.4958197721
  139      C     -10.8055850375    -8.4282158470   -11.9528260804
  140      C     -10.9148151443   -10.6113040481   -10.7066450743
  141      C       2.2678999077     0.2870055931     3.8016693146
  142      C       1.8043677856     2.1599036889     2.1725198270
  143      H       1.3252312564     2.4390642203     1.2344765809
  144      H       2.8640119205     2.4036462578     2.0969058737
  145      H       1.3816461910     2.7805136665     2.9625558461
  146      H       2.1276990360    -0.7710424999     4.0213599475
  147      H       1.8517372020     0.8608626470     4.6293092275
  148      H       3.3388895633     0.4871034803     3.7744616738
  149      H     -10.3733836160    -7.4289800831   -11.9959181274
  150      H     -11.8904830144    -8.3239955795   -11.9256213583
  151      H     -10.5519733077    -8.9446557677   -12.8787703950
  152      H     -10.5666930833   -11.1839691616    -9.8477724896
  153      H     -10.6599878978   -11.1689991093   -11.6078616446
  154      H     -12.0023942582   -10.5588749809   -10.6572261922
 ----------------------------------------------------------------

   11   -3317.7014895537      8.83e-09  Convergence criterion met
 Total energy in the final basis set =    -3317.7014895537
 Final energy is   -3317.70148955368
 **  OPTIMIZATION CONVERGED  **

                    Orbital Energies (a.u.)
 --------------------------------------------------------------

 Alpha MOs
 -- Occupied --
-14.736 -14.729 -10.525 -10.525 -10.521 -10.520 -10.498 -10.494
-10.489 -10.487 -10.487 -10.485 -10.482 -10.482 -10.472 -10.472
-10.472 -10.471 -10.471 -10.470 -10.469 -10.469 -10.468 -10.467
-10.467 -10.466 -10.466 -10.466 -10.465 -10.465 -10.452 -10.452
-10.448 -10.448 -10.445 -10.444 -10.444 -10.443 -10.443 -10.442
-10.441 -10.440 -10.437 -10.436 -10.434 -10.434 -10.434 -10.433
-10.433 -10.433 -10.433 -10.433 -10.433 -10.432 -10.432 -10.432
-10.432 -10.431 -10.430 -10.429 -10.420 -10.420 -10.419 -10.418
-10.418 -10.418 -10.418 -10.417 -10.417 -10.417 -10.415 -10.415
-10.415 -10.414 -10.413 -10.412 -10.406 -10.405 -10.404 -10.403
-10.388 -10.388 -10.386 -10.386  -6.883  -6.881  -1.133  -1.127
 -0.996  -0.991  -0.991  -0.986  -0.982  -0.982  -0.955  -0.953
 -0.939  -0.934  -0.924  -0.922  -0.905  -0.904  -0.884  -0.880
 -0.880  -0.879  -0.875  -0.871  -0.867  -0.865  -0.862  -0.862
 -0.845  -0.841  -0.828  -0.825  -0.820  -0.819  -0.819  -0.818
 -0.799  -0.797  -0.797  -0.796  -0.795  -0.791  -0.783  -0.779
 -0.778  -0.766  -0.749  -0.744  -0.743  -0.738  -0.713  -0.709
 -0.706  -0.705  -0.700  -0.699  -0.697  -0.696  -0.695  -0.689
 -0.688  -0.687  -0.659  -0.657  -0.653  -0.648  -0.647  -0.646
 -0.643  -0.641  -0.639  -0.630  -0.625  -0.623  -0.613  -0.610
 -0.598  -0.595  -0.569  -0.568  -0.568  -0.565  -0.563  -0.563
 -0.561  -0.560  -0.558  -0.557  -0.553  -0.552  -0.551  -0.549
 -0.547  -0.544  -0.543  -0.527  -0.526  -0.525  -0.523  -0.522
 -0.519  -0.513  -0.511  -0.509  -0.508  -0.506  -0.504  -0.502
 -0.498  -0.496  -0.490  -0.488  -0.488  -0.485  -0.485  -0.479
 -0.479  -0.477  -0.474  -0.473  -0.470  -0.469  -0.467  -0.465
 -0.461  -0.461  -0.460  -0.458  -0.457  -0.456  -0.455  -0.453
 -0.453  -0.452  -0.451  -0.451  -0.450  -0.450  -0.447  -0.446
 -0.444  -0.442  -0.440  -0.438  -0.434  -0.434  -0.430  -0.429
 -0.426  -0.421  -0.419  -0.418  -0.417  -0.416  -0.412  -0.408
 -0.406  -0.405  -0.403  -0.401  -0.399  -0.397  -0.396  -0.395
 -0.393  -0.392  -0.387  -0.384  -0.382  -0.379  -0.376  -0.372
 -0.372  -0.371  -0.369  -0.368  -0.367  -0.365  -0.360  -0.359
 -0.357  -0.356  -0.338  -0.335  -0.330  -0.328  -0.323  -0.319
 -0.314  -0.314  -0.313  -0.311  -0.308  -0.305  -0.288  -0.282
 -0.275  -0.273  -0.273  -0.270  -0.268  -0.265  -0.261  -0.257
 -0.251  -0.235  -0.224  -0.219  -0.130

 Beta MOs
 -- Occupied --
-14.730 -14.723 -10.526 -10.526 -10.521 -10.521 -10.498 -10.494
-10.489 -10.486 -10.486 -10.486 -10.481 -10.481 -10.473 -10.473
-10.470 -10.470 -10.470 -10.469 -10.469 -10.469 -10.469 -10.468
-10.466 -10.466 -10.465 -10.465 -10.465 -10.464 -10.451 -10.451
-10.448 -10.447 -10.445 -10.444 -10.444 -10.443 -10.443 -10.442
-10.441 -10.440 -10.437 -10.436 -10.435 -10.435 -10.434 -10.434
-10.433 -10.433 -10.432 -10.432 -10.432 -10.431 -10.431 -10.431
-10.431 -10.431 -10.431 -10.430 -10.419 -10.419 -10.419 -10.418
-10.418 -10.418 -10.417 -10.417 -10.416 -10.416 -10.416 -10.415
-10.415 -10.414 -10.413 -10.413 -10.406 -10.405 -10.404 -10.403
-10.388 -10.388 -10.386 -10.386  -6.881  -6.879  -1.124  -1.119
 -0.993  -0.989  -0.988  -0.984  -0.982  -0.981  -0.954  -0.952
 -0.938  -0.933  -0.923  -0.921  -0.904  -0.903  -0.882  -0.879
 -0.879  -0.877  -0.874  -0.870  -0.866  -0.864  -0.862  -0.861
 -0.844  -0.840  -0.825  -0.822  -0.819  -0.818  -0.818  -0.817
 -0.797  -0.797  -0.796  -0.795  -0.795  -0.790  -0.780  -0.778
 -0.778  -0.764  -0.748  -0.744  -0.740  -0.736  -0.711  -0.708
 -0.705  -0.704  -0.699  -0.698  -0.696  -0.695  -0.693  -0.689
 -0.687  -0.687  -0.658  -0.656  -0.652  -0.647  -0.646  -0.644
 -0.642  -0.640  -0.635  -0.628  -0.623  -0.621  -0.613  -0.610
 -0.597  -0.594  -0.567  -0.566  -0.566  -0.564  -0.562  -0.561
 -0.559  -0.556  -0.554  -0.553  -0.552  -0.551  -0.550  -0.548
 -0.547  -0.543  -0.541  -0.526  -0.525  -0.524  -0.521  -0.519
 -0.514  -0.512  -0.510  -0.508  -0.508  -0.505  -0.503  -0.502
 -0.497  -0.496  -0.489  -0.487  -0.483  -0.483  -0.481  -0.477
 -0.475  -0.473  -0.473  -0.472  -0.469  -0.468  -0.466  -0.465
 -0.461  -0.460  -0.460  -0.458  -0.456  -0.455  -0.454  -0.452
 -0.451  -0.451  -0.450  -0.450  -0.449  -0.449  -0.446  -0.446
 -0.442  -0.440  -0.437  -0.435  -0.434  -0.433  -0.430  -0.427
 -0.422  -0.419  -0.418  -0.418  -0.417  -0.416  -0.412  -0.406
 -0.404  -0.400  -0.398  -0.396  -0.396  -0.394  -0.393  -0.391
 -0.391  -0.390  -0.386  -0.384  -0.381  -0.378  -0.376  -0.371
 -0.371  -0.370  -0.368  -0.366  -0.365  -0.364  -0.359  -0.358
 -0.356  -0.355  -0.336  -0.328  -0.328  -0.319  -0.315  -0.313
 -0.313  -0.310  -0.309  -0.309  -0.305  -0.303  -0.282  -0.278
 -0.275  -0.272  -0.272  -0.267  -0.266  -0.263  -0.239  -0.227
 -0.221  -0.211  -0.203

          Ground-State Mulliken Net Atomic Charges

     Atom                 Charge (a.u.)    Spin (a.u.)
  --------------------------------------------------------
      1 N                    -0.663341       0.231583
      2 C                     0.302011      -0.048459
      3 C                     0.167828       0.116874
      4 C                    -0.224599      -0.019170
      5 C                    -0.293277      -0.076640
      6 H                     0.220125       0.003705
      7 C                    -0.209792       0.130171
      8 H                     0.232221      -0.007091
      9 C                    -0.231871      -0.067916
     10 H                     0.238484       0.003158
     11 C                    -0.281300       0.093376
     12 H                     0.291059      -0.005143
     13 C                     0.304012      -0.049042
     14 C                    -0.282064       0.093943
     15 H                     0.289798      -0.005145
     16 C                    -0.232220      -0.068471
     17 H                     0.238859       0.003187
     18 C                    -0.210247       0.130709
     19 H                     0.232110      -0.007125
     20 C                    -0.293396      -0.076942
     21 H                     0.220206       0.003719
     22 C                     0.166452       0.117431
     23 C                     0.149619      -0.013193
     24 C                    -0.295795       0.007742
     25 H                     0.219425       0.000054
     26 C                     0.048160       0.002677
     27 C                    -0.293501       0.008034
     28 H                     0.217945      -0.000042
     29 C                     0.046500       0.003198
     30 C                    -0.162580      -0.023153
     31 C                    -0.542909       0.003860
     32 H                     0.216924       0.000520
     33 H                     0.277019      -0.002180
     34 C                    -0.649165       0.000130
     35 C                    -0.541554       0.003415
     36 H                     0.216770       0.000509
     37 H                     0.273704      -0.001729
     38 C                    -0.649971       0.000063
     39 H                     0.265158      -0.000497
     40 H                     0.218495       0.000042
     41 H                     0.199442      -0.000074
     42 B                     0.528820       0.319921
     43 C                    -0.135610       0.034493
     44 C                    -0.401800      -0.036452
     45 H                     0.197348       0.001010
     46 C                     0.102053       0.062951
     47 C                     0.078020       0.069254
     48 C                    -0.394828      -0.040985
     49 H                     0.197802       0.001299
     50 C                    -0.133628       0.036939
     51 C                     0.198770      -0.048988
     52 C                    -0.395222       0.076825
     53 H                     0.192785      -0.004645
     54 C                    -0.078676       0.023673
     55 C                     0.253558      -0.038752
     56 C                     0.197997      -0.051371
     57 C                    -0.386955       0.079953
     58 H                     0.193870      -0.004825
     59 C                    -0.197511      -0.049498
     60 H                     0.207098       0.002476
     61 C                    -0.348230       0.071529
     62 H                     0.206509      -0.004288
     63 C                    -0.344591       0.074613
     64 H                     0.206099      -0.004487
     65 C                    -0.199914      -0.050725
     66 H                     0.207916       0.002527
     67 C                    -0.132472       0.031449
     68 C                    -0.407650      -0.033689
     69 H                     0.196834       0.000878
     70 C                     0.102311       0.060814
     71 C                     0.077611       0.068951
     72 C                    -0.396425      -0.040119
     73 H                     0.198792       0.001251
     74 C                    -0.130916       0.036064
     75 C                     0.197704      -0.048308
     76 C                    -0.396853       0.075151
     77 H                     0.198765      -0.004519
     78 C                    -0.077160       0.023222
     79 C                     0.254038      -0.037989
     80 C                     0.196881      -0.051134
     81 C                    -0.387066       0.078879
     82 H                     0.197841      -0.004743
     83 C                    -0.198539      -0.048518
     84 H                     0.209237       0.002425
     85 C                    -0.348473       0.069791
     86 H                     0.206519      -0.004181
     87 C                    -0.344308       0.073544
     88 H                     0.206018      -0.004422
     89 C                    -0.201483      -0.050093
     90 H                     0.209111       0.002494
     91 B                     0.529444       0.313471
     92 C                    -0.172867      -0.024713
     93 C                     0.044349       0.003416
     94 C                    -0.291263       0.006541
     95 H                     0.217620       0.000052
     96 C                     0.152308      -0.012662
     97 C                    -0.289172       0.006464
     98 H                     0.218515       0.000079
     99 C                     0.047748       0.003229
    100 N                    -0.668359       0.209947
    101 C                     0.303247      -0.043286
    102 C                     0.164555       0.106936
    103 C                    -0.225037      -0.017534
    104 C                    -0.292657      -0.069942
    105 H                     0.218338       0.003379
    106 C                    -0.211831       0.119054
    107 H                     0.229890      -0.006484
    108 C                    -0.231081      -0.061761
    109 H                     0.235426       0.002876
    110 C                    -0.281553       0.084688
    111 H                     0.287225      -0.004678
    112 C                     0.308118      -0.043623
    113 C                     0.163599       0.106757
    114 C                    -0.292830      -0.069869
    115 H                     0.218510       0.003377
    116 C                    -0.212162       0.118876
    117 H                     0.229957      -0.006480
    118 C                    -0.231589      -0.061913
    119 H                     0.236507       0.002883
    120 C                    -0.286006       0.084875
    121 H                     0.285817      -0.004681
    122 C                    -0.540759       0.003853
    123 H                     0.218487       0.000435
    124 H                     0.275155      -0.001907
    125 C                    -0.648026      -0.000244
    126 C                    -0.544305       0.004298
    127 H                     0.218631       0.000470
    128 H                     0.277773      -0.002420
    129 C                    -0.647476      -0.000198
    130 H                     0.260739      -0.000350
    131 H                     0.201422      -0.000086
    132 H                     0.216036       0.000036
    133 H                     0.257240      -0.000275
    134 H                     0.218624       0.000038
    135 H                     0.200782      -0.000078
    136 H                     0.215754       0.000050
    137 H                     0.266570      -0.000609
    138 H                     0.200977      -0.000101
    139 C                    -0.595990       0.010557
    140 C                    -0.598112       0.010164
    141 C                    -0.598666       0.010943
    142 C                    -0.596723       0.011266
    143 H                     0.241114      -0.000419
    144 H                     0.225084       0.000145
    145 H                     0.225288       0.000118
    146 H                     0.241651      -0.000390
    147 H                     0.225183       0.000087
    148 H                     0.224971       0.000073
    149 H                     0.240716      -0.000381
    150 H                     0.224045       0.000078
    151 H                     0.223545       0.000095
    152 H                     0.241222      -0.000351
    153 H                     0.223685       0.000048
    154 H                     0.223853       0.000048
  --------------------------------------------------------
  Sum of atomic charges =    -0.000000

                    Cartesian Multipole Moments
 -----------------------------------------------------------------
    Charge (ESU x 10^10)
                -0.0000
    Dipole Moment (Debye)
         X       0.2021      Y       2.5645      Z       0.0977
       Tot       2.5743
    Quadrupole Moments (Debye-Ang)
        XX    -407.9066     XY      60.8917     YY    -474.5756
        XZ      89.0529     YZ      76.2883     ZZ    -395.3863

 Total job time:  103026.07s(wall), 702604.51s(cpu)
        *  Thank you very much for using Q-Chem.  Have a nice day.  *
