 Q-Chem 5.0, Q-Chem, Inc., Pleasanton, CA (2017)
 Q-Chem 5.0.1 for Intel X86 EM64T Linux

User input:
--------------------------------------------------------------
$rem
threads 8
jobtype	sp
method PBEh-3c
basis def2-mSVP
mem_static	1024
mem_total	14000
sym_ignore	true
cis_n_roots             6
cis_singlets            true
cis_triplets		true
rpa                     false
calc_soc 		true
cis_moments             true
cis_relaxed_density	true
$end

$molecule
read gsopt.mol
$end

--------------------------------------------------------------

             Standard Nuclear Orientation (Angstroms)
    I     Atom           X                Y                Z
 ----------------------------------------------------------------
    1      N       0.0000000000     0.0000000000     0.0000000000
    2      C       0.0000000000     0.0000000000     1.3796530000
    3      C       1.3077930540     0.0000000000    -0.4410367706
    4      C      -1.0795684048    -0.0083891840     2.2522003141
    5      H      -2.0989821284    -0.0118281111     1.8896228873
    6      C      -0.8021764402    -0.0152947899     3.6065804087
    7      H      -1.6223589634    -0.0273892443     4.3121485609
    8      C       1.7938096454    -0.0654256452    -1.7430846914
    9      H       1.1273424101    -0.1068684009    -2.5944872700
   10      C       3.1654766419    -0.0880661225    -1.9154678685
   11      H       3.5702699015    -0.1395141213    -2.9180223996
   12      C       4.0366659130    -0.0515699644    -0.8237254759
   13      H       5.1048878888    -0.0708099804    -0.9931859675
   14      C       3.5443148352    -0.0012576171     0.4671287004
   15      H       4.2245811482     0.0108091929     1.3092671537
   16      C       2.1677628922     0.0214826300     0.6696108770
   17      C       0.5118014827    -0.0079959211     4.0828780310
   18      H       0.6916699368    -0.0181169008     5.1492931616
   19      C       1.5799372821     0.0135474855     3.2055848867
   20      H       2.5971282842     0.0223921816     3.5764222348
   21      C       1.3284688644     0.0183665147     1.8389504574
   22      C      -1.1281395553    -0.1408973346    -0.8303082973
   23      C      -1.3776686976     0.7933732558    -1.8239521066
   24      H      -0.7289734847     1.6557330776    -1.9234235509
   25      C      -1.9660247899    -1.2373085878    -0.6835269531
   26      H      -1.7524466868    -1.9753803634     0.0804571493
   27      C      -3.0509101242    -1.4099392386    -1.5322920716
   28      C      -2.4414096903     0.6181205837    -2.7005215792
   29      C      -3.2868478097    -0.4867053043    -2.5579800825
   30      C      -3.9414998332    -2.6124638523    -1.3894081727
   31      H      -3.6990114079    -3.1931146647    -0.5001967701
   32      H      -4.9934040749    -2.3277326641    -1.3189069230
   33      H      -3.8493504567    -3.2790391719    -2.2502343933
   34      C      -2.6700981175     1.5950200654    -3.8207732944
   35      H      -1.9623279851     2.4223232904    -3.7886298601
   36      H      -3.6756179875     2.0188183843    -3.7886633515
   37      H      -2.5616287759     1.1093500131    -4.7938301716
   38      B      -4.4312609153    -0.7544556253    -3.6015067400
   39      C      -5.8461565498    -0.1328351226    -3.4412398128
   40      C      -6.1227904177     0.7428937821    -2.3876448225
   41      H      -5.3419781836     0.9796711678    -1.6731064066
   42      C      -7.3843503709     1.3015928707    -2.2628798104
   43      C      -8.3935100062     0.9725221172    -3.1936849218
   44      C      -8.1320408592     0.1032989855    -4.2362758808
   45      H      -8.9095605132    -0.1485866780    -4.9498603121
   46      C      -6.8609418459    -0.4542291445    -4.3751679899
   47      C      -9.6115535949     1.6850560994    -2.8259113977
   48      C     -10.8801373349     1.7559594156    -3.3358121471
   49      H     -11.1762471869     1.1987091274    -4.2161951984
   50      C      -9.2957919155     2.4338439665    -1.6785337737
   51      C     -10.1949790868     3.2589262281    -1.0161848134
   52      C      -7.9553746231     2.2395242251    -1.2941820377
   53      C      -7.4909905124     2.9073994678    -0.1930150233
   54      H      -6.4700541254     2.8007615500     0.1517861771
   55      C     -11.8195362623     2.5855162595    -2.6810157895
   56      H     -12.8239514782     2.6439600374    -3.0793042395
   57      C     -11.5012882198     3.3172676692    -1.5604706287
   58      H     -12.2549472245     3.9396670232    -1.0943784580
   59      C      -8.3812251561     3.7586986739     0.5039546854
   60      H      -8.0137598543     4.2872342086     1.3734941735
   61      C      -9.6895824166     3.9371085890     0.1187574203
   62      H     -10.3320464246     4.5990876633     0.6858426524
   63      B      -6.5679613718    -1.4289404832    -5.5495123280
   64      C      -5.1429940525    -2.0117846210    -5.7330864690
   65      C      -4.8678735283    -2.8665578489    -6.8034352239
   66      H      -5.6553280817    -3.1299169901    -7.5016131898
   67      C      -3.5940540355    -3.3753943696    -6.9687677056
   68      C      -2.5686135902    -3.0342904265    -6.0591878199
   69      C      -2.8349146212    -2.1970638874    -4.9918619106
   70      H      -2.0491189592    -1.9449159561    -4.2891244035
   71      C      -4.1204276274    -1.6786107600    -4.8144233293
   72      C      -1.3431849799    -3.7162572911    -6.4802652390
   73      C      -0.0552925575    -3.7851615440    -6.0176752411
   74      H       0.2657864767    -3.2488272860    -5.1338061257
   75      C      -1.6798654029    -4.4483728306    -7.6331315512
   76      C      -0.7894961061    -5.2476644402    -8.3428764025
   77      C      -3.0334476378    -4.2792413735    -7.9752773664
   78      C      -3.5180239602    -4.9373142705    -9.0760017224
   79      H      -4.5504740387    -4.8473958961    -9.3905376199
   80      C       0.5339019136    -5.3000118691    -7.8451555411
   81      H       1.2788058366    -5.9034694264    -8.3495305840
   82      C       0.8750948349    -4.5873492466    -6.7199522773
   83      H       1.8915376276    -4.6413019850    -6.3530104139
   84      C      -2.6358539889    -5.7577190702    -9.8181158320
   85      H      -3.0203226274    -6.2771801458   -10.6862561211
   86      C      -1.3140411517    -5.9167555530    -9.4749125581
   87      H      -0.6753295031    -6.5562953939   -10.0720044948
   88      C      -7.7048427868    -1.8374071033    -6.5549474089
   89      C      -7.8538677304    -1.1579479032    -7.7698067296
   90      C      -8.8393156648    -1.5498968470    -8.6666920469
   91      H      -8.9384399647    -1.0464001649    -9.6216954546
   92      C      -9.6918839799    -2.5988929602    -8.3573573526
   93      C      -9.5532695805    -3.2707056648    -7.1523540845
   94      H     -10.2326755132    -4.0814940005    -6.9165661790
   95      C      -8.5572178147    -2.9070619680    -6.2550209049
   96      N     -10.6821075136    -2.9984572545    -9.2767981371
   97      C     -10.7617967278    -4.2459929496    -9.8655404605
   98      C     -11.6551347321    -2.1865150336    -9.8279065635
   99      C     -11.9530991931    -0.8543945033    -9.5679457264
  100      H     -11.3973046860    -0.2830385361    -8.8369282336
  101      C     -12.9871246152    -0.2766346099   -10.2833101281
  102      H     -13.2357222839     0.7609286711   -10.1024503494
  103      C      -9.9561705473    -5.3652949642    -9.6884577049
  104      H      -9.1329286965    -5.3657308047    -8.9868969670
  105      C     -10.2331729205    -6.4847236317   -10.4532810302
  106      H      -9.6185783910    -7.3675060232   -10.3343022280
  107      C     -11.2800042379    -6.5000235886   -11.3786994833
  108      H     -11.4662160696    -7.3925199613   -11.9609974703
  109      C     -12.0699954678    -5.3808370707   -11.5578914030
  110      H     -12.8728268416    -5.3860967658   -12.2849017629
  111      C     -11.8106763246    -4.2433468781   -10.7999048630
  112      C     -13.7151193633    -0.9981938211   -11.2331436722
  113      H     -14.5141442691    -0.5117225468   -11.7764174308
  114      C     -13.4191919200    -2.3247349269   -11.4806804793
  115      H     -13.9817417237    -2.8863499315   -12.2163091906
  116      C     -12.3839410602    -2.9265183092   -10.7739038925
  117      C      -8.3928602732    -3.6649381488    -4.9683758522
  118      H      -9.1525896489    -4.4376572920    -4.8559406620
  119      H      -8.4635541253    -3.0051760748    -4.1015798400
  120      H      -7.4178948229    -4.1553006825    -4.9197544274
  121      C      -6.9231657484    -0.0323001224    -8.1246479367
  122      H      -7.2452361955     0.4895440407    -9.0251409354
  123      H      -6.8591842906     0.7059283864    -7.3228484557
  124      H      -5.9099961063    -0.3990967157    -8.3031151885
 ----------------------------------------------------------------

   14   -2925.5319653777      9.34E-09 Convergence criterion met
 Total energy in the final basis set = -2925.53196538

         TDDFT/TDA Excitation Energies
 ---------------------------------------------------

 Excited state   1: excitation energy (eV) =    2.3295
 Total energy for state  1:                 -2925.44635746 au
    Multiplicity: Triplet
    Trans. Mom.:  0.0000 X   0.0000 Y   0.0000 Z
    Strength   :     0.0000000000
    D(245) --> V(  2) amplitude = -0.2125
    D(247) --> V(  1) amplitude =  0.9085

 Excited state   2: excitation energy (eV) =    2.4878
 Total energy for state  2:                 -2925.44053883 au
    Multiplicity: Triplet
    Trans. Mom.:  0.0000 X   0.0000 Y   0.0000 Z
    Strength   :     0.0000000000
    D(246) --> V(  2) amplitude =  0.4970
    D(248) --> V(  1) amplitude =  0.7815
    D(248) --> V(  4) amplitude =  0.2289

 Excited state   3: excitation energy (eV) =    2.5406
 Total energy for state  3:                 -2925.43860025 au
    Multiplicity: Triplet
    Trans. Mom.:  0.0000 X   0.0000 Y   0.0000 Z
    Strength   :     0.0000000000
    D(246) --> V(  1) amplitude =  0.7216
    D(246) --> V(  4) amplitude =  0.2557
    D(248) --> V(  2) amplitude =  0.5629

 Excited state   4: excitation energy (eV) =    2.7657
 Total energy for state  4:                 -2925.43032957 au
    Multiplicity: Triplet
    Trans. Mom.:  0.0000 X   0.0000 Y   0.0000 Z
    Strength   :     0.0000000000
    D(242) --> V(  1) amplitude =  0.2390
    D(243) --> V(  1) amplitude = -0.2224
    D(244) --> V(  1) amplitude =  0.2516
    D(245) --> V(  1) amplitude =  0.5748
    D(247) --> V(  2) amplitude = -0.5618

 Excited state   5: excitation energy (eV) =    2.8943
 Total energy for state  5:                 -2925.42560346 au
    Multiplicity: Triplet
    Trans. Mom.:  0.0000 X   0.0000 Y   0.0000 Z
    Strength   :     0.0000000000
    D(251) --> V(  1) amplitude = -0.3913
    D(252) --> V(  1) amplitude =  0.8442

 Excited state   6: excitation energy (eV) =    2.9196
 Total energy for state  6:                 -2925.42467059 au
    Multiplicity: Singlet
    Trans. Mom.: -0.1705 X   0.0152 Y  -0.0829 Z
    Strength   :     0.0025883885
    D(251) --> V(  1) amplitude = -0.3544
    D(252) --> V(  1) amplitude =  0.8846

 Excited state   7: excitation energy (eV) =    2.9465
 Total energy for state  7:                 -2925.42368271 au
    Multiplicity: Triplet
    Trans. Mom.:  0.0000 X   0.0000 Y   0.0000 Z
    Strength   :     0.0000000000
    D(241) --> V(  1) amplitude = -0.2287
    D(251) --> V(  1) amplitude =  0.8699
    D(252) --> V(  1) amplitude =  0.4126

 Excited state   8: excitation energy (eV) =    2.9560
 Total energy for state  8:                 -2925.42333437 au
    Multiplicity: Singlet
    Trans. Mom.:  0.0247 X   0.0230 Y   0.0336 Z
    Strength   :     0.0001642103
    D(241) --> V(  1) amplitude = -0.2123
    D(251) --> V(  1) amplitude =  0.8938
    D(252) --> V(  1) amplitude =  0.3646

 Excited state   9: excitation energy (eV) =    2.9978
 Total energy for state  9:                 -2925.42179670 au
    Multiplicity: Singlet
    Trans. Mom.:  0.0211 X  -0.0110 Y  -0.0128 Z
    Strength   :     0.0000534427
    D(247) --> V(  1) amplitude =  0.9584

 Excited state  10: excitation energy (eV) =    3.2852
 Total energy for state 10:                 -2925.41123664 au
    Multiplicity: Singlet
    Trans. Mom.: -2.1964 X   1.9796 Y   1.7012 Z
    Strength   :     0.9366257727
    D(248) --> V(  1) amplitude =  0.9443

 Excited state  11: excitation energy (eV) =    3.5317
 Total energy for state 11:                 -2925.40217913 au
    Multiplicity: Singlet
    Trans. Mom.: -0.0096 X   0.0097 Y  -0.0028 Z
    Strength   :     0.0000167719
    D(250) --> V(  1) amplitude =  0.9988

 Excited state  12: excitation energy (eV) =    3.5430
 Total energy for state 12:                 -2925.40176167 au
    Multiplicity: Singlet
    Trans. Mom.:  0.0050 X  -0.0038 Y  -0.0171 Z
    Strength   :     0.0000287783
    D(249) --> V(  1) amplitude =  0.9984

 ---------------------------------------------------

                    Orbital Energies (a.u.)
 --------------------------------------------------------------

 Alpha MOs
 -- Occupied --
-14.689 -14.688 -10.493 -10.493 -10.484 -10.484 -10.484 -10.483
-10.470 -10.470 -10.469 -10.469 -10.469 -10.469 -10.469 -10.468
-10.468 -10.468 -10.467 -10.467 -10.466 -10.466 -10.466 -10.465
-10.465 -10.464 -10.464 -10.464 -10.463 -10.463 -10.463 -10.463
-10.463 -10.463 -10.461 -10.460 -10.460 -10.459 -10.451 -10.450
-10.448 -10.448 -10.448 -10.448 -10.447 -10.446 -10.446 -10.446
-10.446 -10.445 -10.445 -10.445 -10.445 -10.445 -10.445 -10.445
-10.445 -10.445 -10.444 -10.444 -10.441 -10.440 -10.440 -10.439
-10.438 -10.438 -10.438 -10.437 -10.436 -10.436 -10.436 -10.435
-10.433 -10.432  -6.957  -6.956  -1.109  -1.108  -1.021  -1.020
 -0.978  -0.977  -0.967  -0.965  -0.949  -0.949  -0.946  -0.946
 -0.938  -0.937  -0.915  -0.906  -0.888  -0.887  -0.883  -0.883
 -0.863  -0.860  -0.854  -0.852  -0.852  -0.851  -0.844  -0.844
 -0.828  -0.820  -0.817  -0.810  -0.809  -0.809  -0.808  -0.807
 -0.778  -0.777  -0.774  -0.774  -0.741  -0.738  -0.732  -0.731
 -0.728  -0.726  -0.699  -0.696  -0.693  -0.686  -0.686  -0.684
 -0.679  -0.671  -0.657  -0.657  -0.656  -0.654  -0.649  -0.648
 -0.645  -0.643  -0.602  -0.601  -0.597  -0.595  -0.595  -0.594
 -0.589  -0.587  -0.587  -0.581  -0.580  -0.573  -0.573  -0.558
 -0.558  -0.554  -0.549  -0.547  -0.533  -0.532  -0.526  -0.522
 -0.519  -0.518  -0.518  -0.514  -0.508  -0.505  -0.503  -0.500
 -0.500  -0.499  -0.499  -0.496  -0.494  -0.491  -0.489  -0.489
 -0.488  -0.488  -0.486  -0.485  -0.485  -0.484  -0.480  -0.480
 -0.478  -0.476  -0.474  -0.474  -0.474  -0.473  -0.469  -0.469
 -0.468  -0.461  -0.451  -0.447  -0.446  -0.446  -0.443  -0.435
 -0.431  -0.430  -0.428  -0.424  -0.423  -0.423  -0.421  -0.416
 -0.411  -0.411  -0.409  -0.409  -0.403  -0.400  -0.400  -0.399
 -0.399  -0.398  -0.398  -0.395  -0.394  -0.393  -0.390  -0.389
 -0.386  -0.377  -0.374  -0.373  -0.367  -0.357  -0.354  -0.349
 -0.327  -0.327  -0.325  -0.319  -0.300  -0.298  -0.297  -0.297
 -0.290  -0.287  -0.286  -0.286  -0.285  -0.267  -0.262  -0.261
 -0.251  -0.251  -0.236  -0.235

          Ground-State Mulliken Net Atomic Charges

     Atom                 Charge (a.u.)
  ----------------------------------------
      1 N                    -0.738179
      2 C                     0.343580
      3 C                     0.334734
      4 C                    -0.282316
      5 H                     0.237256
      6 C                    -0.236407
      7 H                     0.216899
      8 C                    -0.280924
      9 H                     0.234641
     10 C                    -0.235764
     11 H                     0.215866
     12 C                    -0.227247
     13 H                     0.214754
     14 C                    -0.346716
     15 H                     0.205491
     16 C                     0.103767
     17 C                    -0.228768
     18 H                     0.214871
     19 C                    -0.344344
     20 H                     0.205833
     21 C                     0.090954
     22 C                     0.320949
     23 C                    -0.358292
     24 H                     0.237246
     25 C                    -0.350531
     26 H                     0.238825
     27 C                     0.050783
     28 C                     0.052556
     29 C                    -0.211822
     30 C                    -0.763201
     31 H                     0.242045
     32 H                     0.246695
     33 H                     0.250354
     34 C                    -0.760805
     35 H                     0.241201
     36 H                     0.248547
     37 H                     0.245969
     38 B                     0.704874
     39 C                    -0.153090
     40 C                    -0.394061
     41 H                     0.229372
     42 C                     0.106522
     43 C                     0.093253
     44 C                    -0.385157
     45 H                     0.231395
     46 C                    -0.154703
     47 C                     0.195789
     48 C                    -0.377075
     49 H                     0.220812
     50 C                    -0.061550
     51 C                     0.254554
     52 C                     0.196097
     53 C                    -0.383189
     54 H                     0.220542
     55 C                    -0.205998
     56 H                     0.229389
     57 C                    -0.333290
     58 H                     0.222341
     59 C                    -0.203969
     60 H                     0.229062
     61 C                    -0.335896
     62 H                     0.222523
     63 B                     0.705175
     64 C                    -0.154312
     65 C                    -0.387855
     66 H                     0.232335
     67 C                     0.092707
     68 C                     0.101386
     69 C                    -0.386505
     70 H                     0.233286
     71 C                    -0.153863
     72 C                     0.198846
     73 C                    -0.382501
     74 H                     0.221539
     75 C                    -0.061764
     76 C                     0.250707
     77 C                     0.198780
     78 C                    -0.381459
     79 H                     0.221087
     80 C                    -0.333781
     81 H                     0.222386
     82 C                    -0.204643
     83 H                     0.229555
     84 C                    -0.204930
     85 H                     0.229489
     86 C                    -0.332473
     87 H                     0.222334
     88 C                    -0.212838
     89 C                     0.051779
     90 C                    -0.351215
     91 H                     0.237885
     92 C                     0.326034
     93 C                    -0.359805
     94 H                     0.237173
     95 C                     0.049681
     96 N                    -0.742307
     97 C                     0.338302
     98 C                     0.345149
     99 C                    -0.281492
    100 H                     0.234783
    101 C                    -0.235245
    102 H                     0.216465
    103 C                    -0.281087
    104 H                     0.235055
    105 C                    -0.234731
    106 H                     0.216400
    107 C                    -0.228522
    108 H                     0.214943
    109 C                    -0.341714
    110 H                     0.205334
    111 C                     0.096528
    112 C                    -0.229022
    113 H                     0.215040
    114 C                    -0.340576
    115 H                     0.205554
    116 C                     0.087459
    117 C                    -0.762341
    118 H                     0.241762
    119 H                     0.250090
    120 H                     0.245591
    121 C                    -0.758683
    122 H                     0.240841
    123 H                     0.246586
    124 H                     0.248576
  ----------------------------------------
  Sum of atomic charges =    -0.000000

                    Cartesian Multipole Moments
 -----------------------------------------------------------------
    Charge (ESU x 10^10)
                -0.0000
    Dipole Moment (Debye)
         X      -0.1272      Y       0.3152      Z      -0.0664
       Tot       0.3463
    Quadrupole Moments (Debye-Ang)
        XX    -414.4361     XY     -29.8515     YY    -416.0418
        XZ     -22.7588     YZ      15.6967     ZZ    -419.8948

 Total job time:  17820.25s(wall), 68651.98s(cpu)
        *  Thank you very much for using Q-Chem.  Have a nice day.  *
