 Q-Chem 5.0, Q-Chem, Inc., Pleasanton, CA (2017)
 Q-Chem 5.0.1 for Intel X86 EM64T Linux

User input:
--------------------------------------------------------------
$rem
threads 8
jobtype	opt
method PBEh-3c
basis def2-mSVP
mem_static	512
mem_total	6096
sym_ignore	true
$end

$molecule
read incoords.mol
$end

--------------------------------------------------------------

   15   -2925.4703783160      5.59E-09 Convergence criterion met
 Total energy in the final basis set = -2925.47037832
   12   -2925.5129064299      8.54E-09 Convergence criterion met
 Total energy in the final basis set = -2925.51290643
   12   -2925.5259953461      9.45E-09 Convergence criterion met
 Total energy in the final basis set = -2925.52599535
   13   -2925.5301946469      5.07E-09 Convergence criterion met
 Total energy in the final basis set = -2925.53019465
   13   -2925.5317474337      5.09E-09 Convergence criterion met
 Total energy in the final basis set = -2925.53174743
   13   -2925.5322886441      5.16E-09 Convergence criterion met
 Total energy in the final basis set = -2925.53228864
   12   -2925.5322080596      7.62E-09 Convergence criterion met
 Total energy in the final basis set = -2925.53220806
   11   -2925.5322517209      5.98E-09 Convergence criterion met
    9   -2925.5321371369      7.42E-09 Convergence criterion met
 Total energy in the final basis set = -2925.53213714
   10   -2925.5321131871      5.91E-09 Convergence criterion met
 Total energy in the final basis set = -2925.53211319
    9   -2925.5321414015      6.36E-09 Convergence criterion met
 Total energy in the final basis set = -2925.53214140
    9   -2925.5321534303      6.43E-09 Convergence criterion met
 Total energy in the final basis set = -2925.53215343
    9   -2925.5321559857      5.94E-09 Convergence criterion met
 Total energy in the final basis set = -2925.53215599
    7   -2925.5321607944      9.76E-09 Convergence criterion met
 Total energy in the final basis set = -2925.53216079

             Standard Nuclear Orientation (Angstroms)
    I     Atom           X                Y                Z
 ----------------------------------------------------------------
    1      C      -0.1823215190    -1.6404751322     1.1882268848
    2      C      -1.3774531025    -1.4724268326     0.4997120637
    3      C      -2.5811048335    -1.3799042944     1.2056766891
    4      C      -2.5707448445    -1.4607145781     2.6033268757
    5      C      -1.3721269146    -1.6592512900     3.2749496013
    6      C      -0.1804145960    -1.7531457559     2.5701659909
    7      N       1.0241301309    -2.0069242093     3.2532695431
    8      C      -1.3861646074    -1.4197591563    -1.0032004133
    9      C      -3.8639559962    -1.3866585921     3.3660527002
   10      C       1.8067355760    -3.1304049574     3.0796174805
   11      C       2.8512196000    -3.1130654313     4.0189259410
   12      C       2.6744984865    -1.9220500817     4.8076144404
   13      C       1.5336915514    -1.2728401183     4.3044171308
   14      C       3.3582425751    -1.3682318310     5.8831278714
   15      C       2.8974512069    -0.1863854643     6.4326101263
   16      C       1.7673038366     0.4495193476     5.9112238206
   17      C       1.0705621936    -0.0791064065     4.8405021601
   18      C       1.6390138196    -4.1865457905     2.1895297436
   19      C       2.5538042834    -5.2219255710     2.2428855450
   20      C       3.6081829563    -5.2146891834     3.1596388423
   21      C       3.7583666813    -4.1678305251     4.0500194597
   22      C      -5.8172750534     0.0986679144    -0.6432157614
   23      C      -4.5510248054     0.0682078542    -0.0099786205
   24      B      -3.9502302559    -1.2925718570     0.4387426023
   25      C      -4.7130670911    -2.6158629346     0.1407011554
   26      C      -5.9861828960    -2.5779410615    -0.4743834171
   27      B      -6.6082912108    -1.2174953778    -0.8819478645
   28      C      -4.1519188928    -3.8457504022     0.4946930375
   29      C      -4.8424246444    -5.0174133806     0.2467870120
   30      C      -6.1188930804    -4.9767095728    -0.3566925893
   31      C      -6.6816734438    -3.7660664125    -0.7123431175
   32      C      -6.3594245384     1.3179812786    -1.0496260116
   33      C      -5.6558792194     2.4893570102    -0.8403053996
   34      C      -4.3903679198     2.4649351734    -0.2150264500
   35      C      -3.8505806765     1.2590297757     0.2017073412
   36      C      -3.4484383782    -7.0826205731     1.0677824664
   37      C      -3.5035429209    -8.4936875937     1.1581808223
   38      C      -4.5818979477    -9.2203737978     0.7115699990
   39      C      -5.6919427105    -8.5593461191     0.1347753534
   40      C      -5.6068391348    -7.1729656353     0.0568761022
   41      C      -4.5101713962    -6.4186704133     0.5116369300
   42      C      -6.8799401832    -9.1430545034    -0.3675037841
   43      C      -7.8694771666    -8.3470137867    -0.8941972294
   44      C      -7.7541631135    -6.9383207882    -0.9598381089
   45      C      -6.6130598950    -6.3496731371    -0.4793733513
   46      C      -2.6545588502     5.8553818702     0.2072718108
   47      C      -2.7654068719     4.4496282018     0.3279484603
   48      C      -3.8977982278     3.8420720314    -0.1441151972
   49      C      -4.8953830044     4.6466798800    -0.7268986291
   50      C      -4.8191013679     6.0268590617    -0.8583982391
   51      C      -3.6385661220     6.6297165071    -0.3620613308
   52      C      -5.9846336715     3.8726694791    -1.1642817516
   53      C      -7.0487131959     4.4993330784    -1.7553462930
   54      C      -7.0016805161     5.9050816649    -1.9004371232
   55      C      -5.9304896691     6.6545223340    -1.4723588538
   56      C     -10.4339232105    -0.9714684257    -1.3029888613
   57      C      -9.1700647717    -0.9873331312    -0.7268169529
   58      C      -8.0400619371    -1.1860717006    -1.5294727957
   59      C      -8.1997864124    -1.3880831399    -2.9054942217
   60      C      -9.4723395750    -1.3934801620    -3.4620149156
   61      C     -10.5869454468    -1.1791722646    -2.6653478292
   62      N     -11.8757280443    -1.1971704720    -3.2348051935
   63      C      -9.0185268608    -0.7971448450     0.7556502469
   64      C      -7.0007446010    -1.6409992422    -3.7758589328
   65      C     -12.8791804005    -2.0862384383    -2.9002082131
   66      C     -13.9810439409    -1.8692076737    -3.7440002637
   67      C     -13.6170447996    -0.8008048136    -4.6324629217
   68      C     -12.3086813331    -0.4190978595    -4.2916436011
   69      C     -14.2751831752    -0.1693949690    -5.6820329566
   70      C     -13.6231839568     0.8333000696    -6.3734498839
   71      C     -12.3247584077     1.2082863414    -6.0180836059
   72      C     -11.6503080652     0.5944102732    -4.9773949027
   73      C     -12.8848529303    -3.1047591671    -1.9537348544
   74      C     -14.0211933297    -3.8887255301    -1.8592270469
   75      C     -15.1287503768    -3.6773895810    -2.6845405941
   76      C     -15.1126206515    -2.6706752135    -3.6306064752
   77      H       0.7534304506    -1.6988071488     0.6447840831
   78      H      -1.3664804308    -1.7706107506     4.3527270657
   79      H      -1.9506992648    -2.2564704453    -1.4223612164
   80      H      -0.3795610093    -1.4659133445    -1.4167470107
   81      H      -1.8538270369    -0.5052870484    -1.3729830435
   82      H      -4.5044627118    -2.2439149511     3.1453735037
   83      H      -4.4321702202    -0.4904598398     3.1081651399
   84      H      -3.6992440010    -1.3715425203     4.4427581417
   85      H       4.2357730973    -1.8577640791     6.2863342236
   86      H       3.4154518270     0.2536766008     7.2738695214
   87      H       1.4278677075     1.3762498895     6.3546485240
   88      H       0.1976317854     0.4190611082     4.4398766809
   89      H       0.8185221470    -4.2075355184     1.4844512583
   90      H       2.4461362565    -6.0564526786     1.5620093932
   91      H       4.3066557020    -6.0405662693     3.1753852055
   92      H       4.5682616184    -4.1759823127     4.7684271293
   93      H      -3.1770408326    -3.8785611796     0.9673761557
   94      H      -7.6626128340    -3.7353634888    -1.1746315341
   95      H      -7.3321726567     1.3395284955    -1.5297126967
   96      H      -2.8839211664     1.2281231700     0.6925337789
   97      H      -2.5767117750    -6.5597140441     1.4401158787
   98      H      -2.6646573045    -9.0164949393     1.5982461617
   99      H      -4.5819769358   -10.2997284544     0.8033883077
  100      H      -7.0121045471   -10.2177909650    -0.3365729711
  101      H      -8.7713721016    -8.8099495843    -1.2731434960
  102      H      -8.5642666062    -6.3585888237    -1.3848261193
  103      H      -1.7591417218     6.3352005057     0.5794045112
  104      H      -1.9622112378     3.8853818825     0.7851944105
  105      H      -3.5070957604     7.7023685077    -0.4305843871
  106      H      -7.9133125128     3.9507495385    -2.1086275220
  107      H      -7.8408256228     6.4053035499    -2.3657467021
  108      H      -5.9398202874     7.7290225000    -1.6064727468
  109      H     -11.3114206082    -0.7936912243    -0.6922838298
  110      H      -9.6027505274    -1.5799978736    -4.5220009642
  111      H      -9.9774273645    -0.6111870373     1.2382005696
  112      H      -8.3642815124     0.0452656409     0.9878727655
  113      H      -8.5820014848    -1.6815091453     1.2254625049
  114      H      -7.2614940618    -1.6377273766    -4.8336571382
  115      H      -6.5483260936    -2.6097592724    -3.5528707945
  116      H      -6.2273252566    -0.8850786248    -3.6263166952
  117      H     -15.2814962939    -0.4620814516    -5.9553325454
  118      H     -14.1174758449     1.3329305649    -7.1958159515
  119      H     -11.8318915066     1.9974120703    -6.5707241412
  120      H     -10.6448945974     0.8941532148    -4.7146395419
  121      H     -12.0308116844    -3.2911932313    -1.3167333566
  122      H     -14.0483409465    -4.6888956634    -1.1310942620
  123      H     -15.9995400766    -4.3113478578    -2.5839550722
  124      H     -15.9646303398    -2.5145300649    -4.2808428676
 ----------------------------------------------------------------

    8   -2925.5321611834      6.57E-09 Convergence criterion met
 Total energy in the final basis set = -2925.53216118
 Final energy is   -2925.53216118338
 **  OPTIMIZATION CONVERGED  **

                    Orbital Energies (a.u.)
 --------------------------------------------------------------

 Alpha MOs
 -- Occupied --
-14.689 -14.688 -10.493 -10.493 -10.484 -10.484 -10.484 -10.483
-10.470 -10.470 -10.469 -10.469 -10.469 -10.469 -10.469 -10.468
-10.468 -10.468 -10.467 -10.467 -10.466 -10.466 -10.466 -10.465
-10.465 -10.464 -10.464 -10.464 -10.463 -10.463 -10.463 -10.463
-10.463 -10.463 -10.461 -10.460 -10.460 -10.459 -10.451 -10.450
-10.448 -10.448 -10.448 -10.448 -10.447 -10.446 -10.446 -10.446
-10.446 -10.445 -10.445 -10.445 -10.445 -10.445 -10.445 -10.445
-10.445 -10.445 -10.444 -10.444 -10.441 -10.440 -10.440 -10.439
-10.438 -10.438 -10.438 -10.437 -10.436 -10.436 -10.436 -10.435
-10.433 -10.432  -6.957  -6.956  -1.109  -1.108  -1.021  -1.020
 -0.978  -0.978  -0.967  -0.965  -0.949  -0.949  -0.946  -0.946
 -0.938  -0.937  -0.915  -0.906  -0.888  -0.887  -0.883  -0.883
 -0.863  -0.860  -0.854  -0.852  -0.852  -0.851  -0.844  -0.844
 -0.828  -0.820  -0.817  -0.810  -0.809  -0.809  -0.808  -0.807
 -0.778  -0.777  -0.774  -0.774  -0.741  -0.738  -0.732  -0.731
 -0.728  -0.726  -0.699  -0.696  -0.693  -0.686  -0.686  -0.684
 -0.679  -0.671  -0.657  -0.657  -0.656  -0.654  -0.649  -0.648
 -0.645  -0.643  -0.602  -0.601  -0.597  -0.595  -0.595  -0.594
 -0.589  -0.587  -0.587  -0.581  -0.580  -0.573  -0.573  -0.558
 -0.558  -0.554  -0.549  -0.547  -0.533  -0.532  -0.526  -0.522
 -0.519  -0.518  -0.518  -0.514  -0.508  -0.505  -0.503  -0.500
 -0.500  -0.499  -0.499  -0.496  -0.494  -0.491  -0.490  -0.489
 -0.488  -0.488  -0.486  -0.485  -0.485  -0.484  -0.480  -0.480
 -0.478  -0.476  -0.474  -0.474  -0.474  -0.473  -0.469  -0.469
 -0.468  -0.461  -0.451  -0.447  -0.446  -0.446  -0.443  -0.435
 -0.431  -0.430  -0.428  -0.424  -0.423  -0.423  -0.421  -0.416
 -0.411  -0.411  -0.409  -0.409  -0.403  -0.400  -0.400  -0.399
 -0.399  -0.398  -0.398  -0.395  -0.394  -0.393  -0.390  -0.389
 -0.386  -0.377  -0.374  -0.373  -0.367  -0.357  -0.354  -0.349
 -0.327  -0.327  -0.325  -0.319  -0.300  -0.298  -0.297  -0.297
 -0.290  -0.287  -0.286  -0.286  -0.285  -0.267  -0.262  -0.261
 -0.251  -0.251  -0.236  -0.235

          Ground-State Mulliken Net Atomic Charges

     Atom                 Charge (a.u.)
  ----------------------------------------
      1 C                    -0.357812
      2 C                     0.051798
      3 C                    -0.211453
      4 C                     0.050400
      5 C                    -0.349964
      6 C                     0.320392
      7 N                    -0.738152
      8 C                    -0.760860
      9 C                    -0.763207
     10 C                     0.334621
     11 C                     0.103760
     12 C                     0.090868
     13 C                     0.343206
     14 C                    -0.344255
     15 C                    -0.228768
     16 C                    -0.236526
     17 C                    -0.282190
     18 C                    -0.280784
     19 C                    -0.235897
     20 C                    -0.227327
     21 C                    -0.346509
     22 C                    -0.154387
     23 C                    -0.152722
     24 B                     0.704974
     25 C                    -0.153697
     26 C                    -0.153387
     27 B                     0.703595
     28 C                    -0.386557
     29 C                     0.101256
     30 C                     0.092800
     31 C                    -0.388087
     32 C                    -0.385210
     33 C                     0.093268
     34 C                     0.106534
     35 C                    -0.394210
     36 C                    -0.382514
     37 C                    -0.204619
     38 C                    -0.333782
     39 C                     0.250807
     40 C                    -0.061820
     41 C                     0.198771
     42 C                    -0.332610
     43 C                    -0.204897
     44 C                    -0.381337
     45 C                     0.198767
     46 C                    -0.203927
     47 C                    -0.383085
     48 C                     0.196061
     49 C                    -0.061550
     50 C                     0.254627
     51 C                    -0.336020
     52 C                     0.195669
     53 C                    -0.377150
     54 C                    -0.205960
     55 C                    -0.333324
     56 C                    -0.360481
     57 C                     0.050347
     58 C                    -0.213319
     59 C                     0.052890
     60 C                    -0.351773
     61 C                     0.326857
     62 N                    -0.742460
     63 C                    -0.762281
     64 C                    -0.758731
     65 C                     0.338630
     66 C                     0.096208
     67 C                     0.087379
     68 C                     0.345317
     69 C                    -0.340617
     70 C                    -0.229001
     71 C                    -0.235212
     72 C                    -0.281669
     73 C                    -0.281159
     74 C                    -0.234769
     75 C                    -0.228486
     76 C                    -0.341575
     77 H                     0.237245
     78 H                     0.238822
     79 H                     0.246025
     80 H                     0.241174
     81 H                     0.248594
     82 H                     0.250413
     83 H                     0.246684
     84 H                     0.242039
     85 H                     0.205896
     86 H                     0.214843
     87 H                     0.216914
     88 H                     0.237391
     89 H                     0.234633
     90 H                     0.215949
     91 H                     0.214768
     92 H                     0.205550
     93 H                     0.233250
     94 H                     0.232346
     95 H                     0.231360
     96 H                     0.229346
     97 H                     0.221504
     98 H                     0.229555
     99 H                     0.222372
    100 H                     0.222367
    101 H                     0.229470
    102 H                     0.221126
    103 H                     0.229050
    104 H                     0.220569
    105 H                     0.222558
    106 H                     0.220765
    107 H                     0.229376
    108 H                     0.222345
    109 H                     0.237128
    110 H                     0.237866
    111 H                     0.241734
    112 H                     0.250038
    113 H                     0.245583
    114 H                     0.240850
    115 H                     0.248564
    116 H                     0.246551
    117 H                     0.205560
    118 H                     0.215058
    119 H                     0.216499
    120 H                     0.234789
    121 H                     0.235060
    122 H                     0.216404
    123 H                     0.214954
    124 H                     0.205351
  ----------------------------------------
  Sum of atomic charges =    -0.000000

                    Cartesian Multipole Moments
 -----------------------------------------------------------------
    Charge (ESU x 10^10)
                -0.0000
    Dipole Moment (Debye)
         X       0.0678      Y       0.2101      Z      -0.2662
       Tot       0.3458
    Quadrupole Moments (Debye-Ang)
        XX    -446.1734     XY       4.2406     YY    -371.8424
        XZ       0.2814     YZ      -4.2352     ZZ    -434.7884

 Total job time:  24440.80s(wall), 125576.99s(cpu)
        *  Thank you very much for using Q-Chem.  Have a nice day.  *
