 Q-Chem 5.1, Q-Chem, Inc., Pleasanton, CA (2018)
 Q-Chem 5.1.1 for Intel X86 EM64T Linux

User input:
--------------------------------------------------------------
$rem
threads 4
jobtype	opt
method PBEh-3c
basis def2-mSVP
mem_static	512
mem_total	6096
sym_ignore	true
scf_convergence 9
$end

$molecule
read gsopt.mol
$end

--------------------------------------------------------------

   17   -2925.5318157405      7.19e-10  Convergence criterion met
 Total energy in the final basis set =    -2925.5318157405
   14   -2925.5319818966      6.63e-10  Convergence criterion met
 Total energy in the final basis set =    -2925.5319818966
   14   -2925.5314282179      7.11e-10  Convergence criterion met
 Total energy in the final basis set =    -2925.5314282179
   13   -2925.5317497416      5.02e-10  Convergence criterion met
 Total energy in the final basis set =    -2925.5317497416
   13   -2925.5318269979      4.87e-10  Convergence criterion met
 Total energy in the final basis set =    -2925.5318269979
   12   -2925.5318348249      7.34e-10  Convergence criterion met
 Total energy in the final basis set =    -2925.5318348249
   12   -2925.5317656007      5.98e-10  Convergence criterion met
 Total energy in the final basis set =    -2925.5317656007
   12   -2925.5317891782      5.36e-10  Convergence criterion met
   11   -2925.5317880048      5.21e-10  Convergence criterion met
 Total energy in the final basis set =    -2925.5317880048
   11   -2925.5318066706      5.90e-10  Convergence criterion met
 Total energy in the final basis set =    -2925.5318066706
   11   -2925.5318387699      5.46e-10  Convergence criterion met
 Total energy in the final basis set =    -2925.5318387699
   10   -2925.5318463716      7.01e-10  Convergence criterion met
 Total energy in the final basis set =    -2925.5318463716
   10   -2925.5318479208      7.99e-10  Convergence criterion met
 Total energy in the final basis set =    -2925.5318479208
   10   -2925.5318392018      5.52e-10  Convergence criterion met
 Total energy in the final basis set =    -2925.5318392018

             Standard Nuclear Orientation (Angstroms)
    I     Atom           X                Y                Z
 ----------------------------------------------------------------
    1      N      -0.1267351174    -0.0256870616     0.1682639697
    2      C      -0.3972420674     0.1637289080     1.5093496612
    3      C       1.2398076052     0.0486315786    -0.0176110517
    4      C      -1.6285852886     0.2067920302     2.1526583201
    5      H      -2.5545487041     0.0713763400     1.6094032743
    6      C      -1.6287298221     0.4358624723     3.5159327208
    7      H      -2.5724566115     0.4744541545     4.0442592185
    8      C       1.9689905331    -0.0929551381    -1.1918902802
    9      H       1.4821144170    -0.2883144424    -2.1383154411
   10      C       3.3439524524     0.0238623230    -1.1069767271
   11      H       3.9384449770    -0.0789811295    -2.0053693951
   12      C       3.9798447199     0.2696486807     0.1130145548
   13      H       5.0574489354     0.3576148030     0.1437561121
   14      C       3.2455783091     0.3975705313     1.2772768608
   15      H       3.7431463622     0.5825195967     2.2208479850
   16      C       1.8608036276     0.2858132226     1.2194459395
   17      C      -0.4378418511     0.6216206240     4.2229505617
   18      H      -0.4734966539     0.7979750031     5.2894950312
   19      C       0.7806426276     0.5878905112     3.5709843477
   20      H       1.7002210739     0.7418902849     4.1210152961
   21      C       0.8089873684     0.3594213407     2.1995572275
   22      C      -1.0935800523    -0.2162206355    -0.8424630477
   23      C      -1.2015597857     0.6912840823    -1.8868805217
   24      H      -0.5411521607     1.5498122238    -1.9185699283
   25      C      -1.9480114829    -1.3080947444    -0.7861126384
   26      H      -1.8460597509    -2.0224780011     0.0220513096
   27      C      -2.9246768094    -1.4895350639    -1.7570670349
   28      C      -2.1591540354     0.5116498026    -2.8784136526
   29      C      -3.0359493685    -0.5761416805    -2.8120638180
   30      C      -3.8560665659    -2.6676283415    -1.6864484662
   31      H      -3.6785317146    -3.2744424087    -0.7992107157
   32      H      -4.9007247759    -2.3492101574    -1.6611151147
   33      H      -3.7411976437    -3.3176180069    -2.5563285357
   34      C      -2.2728776604     1.4888834840    -4.0144785850
   35      H      -1.5391819015     2.2904571875    -3.9377961526
   36      H      -3.2617923062     1.9515311880    -4.0450495016
   37      H      -2.1210574776     0.9962238598    -4.9775096357
   38      B      -4.1719914065    -0.7722509155    -3.8816439807
   39      C      -5.5555048134    -0.0925293339    -3.6561641628
   40      C      -5.7768061983     0.7160424090    -2.5356688379
   41      H      -4.9712347948     0.8834178728    -1.8289873542
   42      C      -7.0219397160     1.2867877694    -2.3259092577
   43      C      -8.0650004578     1.0519176635    -3.2480081958
   44      C      -7.8602429043     0.2523796187    -4.3552699422
   45      H      -8.6702758274     0.0592355754    -5.0507509993
   46      C      -6.6107929028    -0.3265205624    -4.5710355646
   47      C      -9.2633028417     1.7406548618    -2.7821432745
   48      C     -10.5499055886     1.8587363179    -3.2382291991
   49      H     -10.8780248084     1.3861451015    -4.1558118551
   50      C      -8.9069138051     2.3731927768    -1.5796797582
   51      C      -9.7887833449     3.1200811050    -0.8071626368
   52      C      -7.5587900801     2.1316772840    -1.2541592759
   53      C      -7.0697850297     2.6711450637    -0.0945611030
   54      H      -6.0438288460     2.5222301304     0.2174752518
   55      C     -11.4677952765     2.6175651403    -2.4763179229
   56      H     -12.4848083944     2.7122807375    -2.8338525284
   57      C     -11.1120697651     3.2328200727    -1.2989835944
   58      H     -11.8489830524     3.8018184244    -0.7455688627
   59      C      -7.9400630687     3.4409922153     0.7141736312
   60      H      -7.5502874961     3.8652313590     1.6299809641
   61      C      -9.2555106103     3.6670521250     0.3832677808
   62      H      -9.8825065684     4.2607206656     1.0369976149
   63      B      -6.3988593691    -1.2626473771    -5.7864031928
   64      C      -5.0057992171    -1.8992181969    -6.0327747611
   65      C      -4.8208107522    -2.7430165286    -7.1266352042
   66      H      -5.6403689022    -2.9231021542    -7.8136898011
   67      C      -3.6051142933    -3.3682632042    -7.3168413877
   68      C      -2.5384929274    -3.1583450571    -6.4163263900
   69      C      -2.7118217448    -2.3129610836    -5.3321890908
   70      H      -1.9027977268    -2.1509037954    -4.6280460123
   71      C      -3.9420970805    -1.6784015666    -5.1258616629
   72      C      -1.4130082175    -3.9897581913    -6.8578107082
   73      C      -0.1445575995    -4.2429569641    -6.4077066925
   74      H       0.2580767898    -3.7584900569    -5.5270897542
   75      C      -1.8568305000    -4.6722672391    -8.0074868652
   76      C      -1.1027986806    -5.5969325522    -8.7214545202
   77      C      -3.1803979831    -4.3281661778    -8.3304144560
   78      C      -3.7773036210    -4.9233495924    -9.4109698835
   79      H      -4.7966048884    -4.6974405674    -9.6997385189
   80      C       0.2044146705    -5.8349823568    -8.2360377251
   81      H       0.8511167140    -6.5420633564    -8.7408185374
   82      C       0.6531030331    -5.1727693062    -7.1176280208
   83      H       1.6543036194    -5.3709674938    -6.7586183262
   84      C      -3.0318577040    -5.8635505033   -10.1589549744
   85      H      -3.5007451115    -6.3362820888   -11.0121150035
   86      C      -1.7378750574    -6.1983310573    -9.8352698570
   87      H      -1.2060584852    -6.9281914827   -10.4332952731
   88      C      -7.5904068237    -1.6413662810    -6.7407191040
   89      C      -7.8556755770    -0.9029332732    -7.8995230334
   90      C      -8.8589754944    -1.3129388244    -8.7704410997
   91      H      -9.0427510854    -0.7657457729    -9.6877621591
   92      C      -9.6103506273    -2.4429055130    -8.4890853914
   93      C      -9.3725175459    -3.1597420956    -7.3260814182
   94      H      -9.9775635950    -4.0318471037    -7.1062836890
   95      C      -8.3633511206    -2.7745339725    -6.4551645612
   96      N     -10.6003607908    -2.8919711706    -9.3879371660
   97      C     -10.6063893086    -4.1333163587    -9.9913220512
   98      C     -11.7830867428    -2.2470275618    -9.6914783694
   99      C     -12.2429500904    -1.0032573844    -9.2794377656
  100      H     -11.6495248969    -0.3658963712    -8.6376126151
  101      C     -13.4962077451    -0.6085865521    -9.7137042620
  102      H     -13.8794530627     0.3559231083    -9.4073497328
  103      C      -9.6399503334    -5.1326842824    -9.9688601992
  104      H      -8.7146756759    -5.0127696734    -9.4212919988
  105      C      -9.9023962242    -6.2959461239   -10.6701320144
  106      H      -9.1673658792    -7.0903120217   -10.6653087592
  107      C     -11.0922581204    -6.4693541913   -11.3821053841
  108      H     -11.2645646883    -7.3931422920   -11.9179317430
  109      C     -12.0462102401    -5.4698544034   -11.4045832576
  110      H     -12.9680326689    -5.6035153936   -11.9570331293
  111      C     -11.8065198399    -4.2917584253   -10.7049471088
  112      C     -14.2796709552    -1.4261959293   -10.5326348769
  113      H     -15.2557317040    -1.0846696733   -10.8501737303
  114      C     -13.8186391831    -2.6659296100   -10.9329060727
  115      H     -14.4289492860    -3.3042621022   -11.5598055172
  116      C     -12.5621063606    -3.0847346862   -10.5105092107
  117      C      -8.0972632961    -3.5818169396    -5.2158116303
  118      H      -8.8042556785    -4.4042462114    -5.1134479967
  119      H      -8.1714743385    -2.9693915226    -4.3149921151
  120      H      -7.0931517484    -4.0119256419    -5.2298031725
  121      C      -7.0304286327     0.3108786335    -8.2205666302
  122      H      -7.3419874466     0.7759697704    -9.1551496622
  123      H      -7.1081070555     1.0657908011    -7.4354930627
  124      H      -5.9722101820     0.0578645177    -8.3174401732
 ----------------------------------------------------------------

    9   -2925.5318362784      7.69e-10  Convergence criterion met
 Total energy in the final basis set =    -2925.5318362784
 Final energy is   -2925.53183627835
 **  OPTIMIZATION CONVERGED  **

                    Orbital Energies (a.u.)
 --------------------------------------------------------------

 Alpha MOs
 -- Occupied --
-14.688 -14.688 -10.493 -10.493 -10.484 -10.483 -10.483 -10.483
-10.470 -10.470 -10.470 -10.470 -10.470 -10.469 -10.469 -10.469
-10.468 -10.468 -10.467 -10.467 -10.467 -10.467 -10.467 -10.466
-10.465 -10.464 -10.464 -10.464 -10.464 -10.464 -10.464 -10.463
-10.463 -10.463 -10.462 -10.462 -10.460 -10.459 -10.451 -10.451
-10.449 -10.449 -10.448 -10.448 -10.446 -10.446 -10.446 -10.446
-10.445 -10.445 -10.445 -10.445 -10.445 -10.445 -10.445 -10.445
-10.445 -10.444 -10.444 -10.444 -10.442 -10.442 -10.440 -10.440
-10.438 -10.437 -10.437 -10.437 -10.437 -10.436 -10.436 -10.435
-10.434 -10.433  -6.958  -6.956  -1.108  -1.107  -1.022  -1.021
 -0.978  -0.977  -0.968  -0.965  -0.949  -0.948  -0.946  -0.946
 -0.938  -0.938  -0.915  -0.907  -0.888  -0.887  -0.883  -0.883
 -0.863  -0.861  -0.854  -0.852  -0.852  -0.852  -0.844  -0.843
 -0.828  -0.820  -0.818  -0.811  -0.809  -0.808  -0.808  -0.807
 -0.778  -0.777  -0.774  -0.774  -0.741  -0.738  -0.732  -0.731
 -0.728  -0.726  -0.699  -0.696  -0.694  -0.686  -0.685  -0.685
 -0.679  -0.672  -0.657  -0.657  -0.656  -0.654  -0.649  -0.649
 -0.645  -0.643  -0.602  -0.601  -0.597  -0.595  -0.595  -0.594
 -0.590  -0.587  -0.586  -0.581  -0.580  -0.573  -0.572  -0.559
 -0.558  -0.554  -0.549  -0.548  -0.534  -0.532  -0.526  -0.522
 -0.518  -0.518  -0.518  -0.515  -0.508  -0.505  -0.503  -0.500
 -0.499  -0.499  -0.498  -0.497  -0.494  -0.491  -0.489  -0.489
 -0.488  -0.488  -0.485  -0.485  -0.485  -0.485  -0.481  -0.480
 -0.479  -0.476  -0.475  -0.474  -0.474  -0.473  -0.469  -0.469
 -0.469  -0.461  -0.452  -0.447  -0.446  -0.446  -0.443  -0.435
 -0.431  -0.431  -0.429  -0.424  -0.423  -0.423  -0.420  -0.416
 -0.411  -0.411  -0.409  -0.408  -0.404  -0.400  -0.400  -0.400
 -0.399  -0.399  -0.398  -0.396  -0.393  -0.393  -0.390  -0.389
 -0.387  -0.377  -0.374  -0.373  -0.367  -0.357  -0.354  -0.350
 -0.326  -0.326  -0.326  -0.319  -0.300  -0.299  -0.297  -0.296
 -0.290  -0.287  -0.286  -0.286  -0.286  -0.267  -0.263  -0.261
 -0.251  -0.251  -0.237  -0.236

          Ground-State Mulliken Net Atomic Charges

     Atom                 Charge (a.u.)
  ----------------------------------------
      1 N                    -0.741741
      2 C                     0.339526
      3 C                     0.341819
      4 C                    -0.281081
      5 H                     0.234784
      6 C                    -0.236552
      7 H                     0.215958
      8 C                    -0.281333
      9 H                     0.234714
     10 C                    -0.236630
     11 H                     0.216246
     12 C                    -0.228033
     13 H                     0.214629
     14 C                    -0.345777
     15 H                     0.205608
     16 C                     0.097218
     17 C                    -0.227797
     18 H                     0.214520
     19 C                    -0.346272
     20 H                     0.205493
     21 C                     0.100767
     22 C                     0.317543
     23 C                    -0.347835
     24 H                     0.236299
     25 C                    -0.355554
     26 H                     0.236506
     27 C                     0.046886
     28 C                     0.055566
     29 C                    -0.209684
     30 C                    -0.764200
     31 H                     0.242646
     32 H                     0.248029
     33 H                     0.249380
     34 C                    -0.760113
     35 H                     0.241305
     36 H                     0.248309
     37 H                     0.245206
     38 B                     0.707173
     39 C                    -0.152556
     40 C                    -0.391831
     41 H                     0.232153
     42 C                     0.113209
     43 C                     0.085350
     44 C                    -0.383389
     45 H                     0.229663
     46 C                    -0.154394
     47 C                     0.195653
     48 C                    -0.376004
     49 H                     0.219537
     50 C                    -0.060283
     51 C                     0.253241
     52 C                     0.196728
     53 C                    -0.385756
     54 H                     0.221241
     55 C                    -0.205944
     56 H                     0.229194
     57 C                    -0.331596
     58 H                     0.222419
     59 C                    -0.203215
     60 H                     0.229250
     61 C                    -0.336295
     62 H                     0.222754
     63 B                     0.703993
     64 C                    -0.150984
     65 C                    -0.379982
     66 H                     0.232588
     67 C                     0.086906
     68 C                     0.109744
     69 C                    -0.395026
     70 H                     0.229896
     71 C                    -0.156567
     72 C                     0.197132
     73 C                    -0.384851
     74 H                     0.220426
     75 C                    -0.061619
     76 C                     0.251543
     77 C                     0.196682
     78 C                    -0.375917
     79 H                     0.220187
     80 C                    -0.335364
     81 H                     0.222759
     82 C                    -0.203269
     83 H                     0.229043
     84 C                    -0.206443
     85 H                     0.229773
     86 C                    -0.331111
     87 H                     0.222484
     88 C                    -0.216383
     89 C                     0.056224
     90 C                    -0.347997
     91 H                     0.232712
     92 C                     0.310519
     93 C                    -0.344610
     94 H                     0.237346
     95 C                     0.048333
     96 N                    -0.739379
     97 C                     0.340372
     98 C                     0.344374
     99 C                    -0.281060
    100 H                     0.231323
    101 C                    -0.235573
    102 H                     0.215787
    103 C                    -0.278483
    104 H                     0.231775
    105 C                    -0.235512
    106 H                     0.215565
    107 C                    -0.228515
    108 H                     0.214797
    109 C                    -0.342477
    110 H                     0.205363
    111 C                     0.094374
    112 C                    -0.228512
    113 H                     0.214715
    114 C                    -0.342139
    115 H                     0.205398
    116 C                     0.095006
    117 C                    -0.763062
    118 H                     0.242989
    119 H                     0.248815
    120 H                     0.248167
    121 C                    -0.758426
    122 H                     0.240888
    123 H                     0.245203
    124 H                     0.247404
  ----------------------------------------
  Sum of atomic charges =    -0.000000

                    Cartesian Multipole Moments
 -----------------------------------------------------------------
    Charge (ESU x 10^10)
                -0.0000
    Dipole Moment (Debye)
         X      -0.1569      Y       0.0601      Z      -0.0139
       Tot       0.1686
    Quadrupole Moments (Debye-Ang)
        XX    -412.2805     XY     -26.7996     YY    -415.0363
        XZ     -25.2788     YZ      20.9457     ZZ    -424.6551

 Total job time:  39970.96s(wall), 157544.61s(cpu)
        *  Thank you very much for using Q-Chem.  Have a nice day.  *
