 Q-Chem 5.0, Q-Chem, Inc., Pleasanton, CA (2017)
 Q-Chem 5.0.1 for Intel X86 EM64T Linux

User input:
--------------------------------------------------------------
$rem
threads 8
jobtype	opt
method PBEh-3c
basis def2-mSVP
mem_static	1024
mem_total	14000
sym_ignore	true
cis_n_roots             2
cis_singlets            true
cis_triplets		false
rpa                     false
cis_state_deriv         1
$end

$molecule
read incoords.mol
$end

--------------------------------------------------------------

   15   -2925.4703783159      5.59E-09 Convergence criterion met
 Total energy in the final basis set = -2925.47037832
   12   -2925.5119303553      9.79E-09 Convergence criterion met
 Total energy in the final basis set = -2925.51193036
   13   -2925.5243782077      5.41E-09 Convergence criterion met
 Total energy in the final basis set = -2925.52437821
   13   -2925.5249464449      5.77E-09 Convergence criterion met
 Total energy in the final basis set = -2925.52494644
   13   -2925.5256689923      5.67E-09 Convergence criterion met
 Total energy in the final basis set = -2925.52566899
   13   -2925.5244510993      5.31E-09 Convergence criterion met
 Total energy in the final basis set = -2925.52445110
   12   -2925.5247828239      8.23E-09 Convergence criterion met
 Total energy in the final basis set = -2925.52478282
   11   -2925.5249274607      6.18E-09 Convergence criterion met
    9   -2925.5249507520      8.31E-09 Convergence criterion met
 Total energy in the final basis set = -2925.52495075
    9   -2925.5249366083      8.63E-09 Convergence criterion met
 Total energy in the final basis set = -2925.52493661
   10   -2925.5249065906      4.97E-09 Convergence criterion met
 Total energy in the final basis set = -2925.52490659
    9   -2925.5249583252      8.78E-09 Convergence criterion met
 Total energy in the final basis set = -2925.52495833
    9   -2925.5249602396      6.04E-09 Convergence criterion met
 Total energy in the final basis set = -2925.52496024
    8   -2925.5249599071      7.58E-09 Convergence criterion met
 Total energy in the final basis set = -2925.52495991

             Standard Nuclear Orientation (Angstroms)
    I     Atom           X                Y                Z
 ----------------------------------------------------------------
    1      C      -0.1842222955    -1.7888976062     1.1726273844
    2      C      -1.3608172645    -1.5915881554     0.4872992934
    3      C      -2.5770614957    -1.4193851657     1.1955817814
    4      C      -2.5576870854    -1.4060381351     2.6139280596
    5      C      -1.3710464246    -1.5751603515     3.2889799293
    6      C      -0.1811576926    -1.7875003953     2.5753495297
    7      N       0.9939979470    -2.0249582390     3.2594787295
    8      C      -1.3806931074    -1.5701593542    -1.0087840900
    9      C      -3.8471511147    -1.2668630084     3.3602918223
   10      C       1.9167146207    -3.0199203696     2.9560648534
   11      C       2.9477372717    -2.9876318408     3.9065796168
   12      C       2.6303840610    -1.9199590758     4.8319400161
   13      C       1.4224978681    -1.3531517824     4.3968813233
   14      C       3.2632681606    -1.4057619685     5.9452581725
   15      C       2.6828273974    -0.3246561720     6.6005499304
   16      C       1.5055665952     0.2528386512     6.1318175235
   17      C       0.8608898787    -0.2423978599     5.0109680839
   18      C       1.8413574257    -4.0089321307     1.9815181934
   19      C       2.8699101067    -4.9349180719     1.9327793155
   20      C       3.9194421847    -4.8925015223     2.8461520479
   21      C       3.9574852650    -3.9287688648     3.8484046073
   22      C      -5.7940013580     0.0687360064    -0.6504873409
   23      C      -4.5142566125     0.0271041035    -0.0138021626
   24      B      -3.9551707166    -1.3222557555     0.4266916321
   25      C      -4.7159673957    -2.6220241335     0.1686897943
   26      C      -5.9963569562    -2.5665191320    -0.4624713684
   27      B      -6.5957813858    -1.2199488225    -0.8878910208
   28      C      -4.1907022314    -3.8769474551     0.5445892866
   29      C      -4.8935950410    -5.0317392141     0.3099107079
   30      C      -6.1741819102    -4.9728667957    -0.3136575948
   31      C      -6.7034991432    -3.7609175164    -0.6857510718
   32      C      -6.3172054479     1.3089277405    -1.0491683784
   33      C      -5.6141426198     2.4708059649    -0.8371824173
   34      C      -4.3340440099     2.4351332890    -0.2121383304
   35      C      -3.8068905708     1.2315121199     0.1914844991
   36      C      -3.5502506062    -7.1210800703     1.1598999923
   37      C      -3.6337471746    -8.5282453743     1.2584896986
   38      C      -4.7212426699    -9.2386677238     0.8059860522
   39      C      -5.8124151351    -8.5601082708     0.2140947812
   40      C      -5.7014848312    -7.1741395028     0.1284057058
   41      C      -4.5936854217    -6.4354050426     0.5894686120
   42      C      -7.0041833518    -9.1279690334    -0.2983931735
   43      C      -7.9721887891    -8.3162782521    -0.8422959942
   44      C      -7.8337312084    -6.9117943145    -0.9175471363
   45      C      -6.6876849323    -6.3346106431    -0.4270764932
   46      C      -2.5873689999     5.8179953508     0.2284859250
   47      C      -2.7005353813     4.4133092587     0.3366102053
   48      C      -3.8379293570     3.8085675544    -0.1343464193
   49      C      -4.8373059944     4.6235100540    -0.7052605936
   50      C      -4.7569570504     6.0066063021    -0.8230991215
   51      C      -3.5723162753     6.6018061077    -0.3276629316
   52      C      -5.9339146584     3.8556206589    -1.1448210342
   53      C      -6.9990767449     4.4979949034    -1.7234835869
   54      C      -6.9451210949     5.9033872007    -1.8526621797
   55      C      -5.8691321295     6.6464196083    -1.4236380370
   56      C     -10.4326927717    -0.9313988415    -1.3314479995
   57      C      -9.1679410795    -0.9451100877    -0.7550147941
   58      C      -8.0340263201    -1.1786929762    -1.5454628889
   59      C      -8.2022595610    -1.4126144593    -2.9170481745
   60      C      -9.4745283460    -1.4194060976    -3.4763141222
   61      C     -10.5864731300    -1.1740400916    -2.6867006242
   62      N     -11.8785771041    -1.1996381792    -3.2574077336
   63      C      -9.0241213891    -0.7146092974     0.7223905826
   64      C      -7.0094941330    -1.6979461291    -3.7857050251
   65      C     -12.8664186774    -2.1076403929    -2.9385054664
   66      C     -13.9736726250    -1.8950305443    -3.7777128501
   67      C     -13.6255875622    -0.8078604088    -4.6491765081
   68      C     -12.3221160934    -0.4133380951    -4.3003169261
   69      C     -14.2897500302    -0.1701932395    -5.6913281045
   70      C     -13.6489585817     0.8497210770    -6.3679121574
   71      C     -12.3548198286     1.2351550078    -6.0059900948
   72      C     -11.6742501856     0.6161338813    -4.9727653999
   73      C     -12.8542823494    -3.1397533723    -2.0063545934
   74      C     -13.9772124416    -3.9434295774    -1.9225662895
   75      C     -15.0896573770    -3.7380065934    -2.7437583749
   76      C     -15.0918832445    -2.7167767446    -3.6743337939
   77      H       0.7491251467    -1.8865801936     0.6326964915
   78      H      -1.3674038309    -1.6430093621     4.3692124364
   79      H      -2.0041766298    -2.3810604541    -1.3896151518
   80      H      -0.3829503570    -1.6752606968    -1.4330516792
   81      H      -1.8198480529    -0.6440956855    -1.3799175542
   82      H      -4.5063717434    -2.1090516438     3.1450257492
   83      H      -4.3798564381    -0.3692843223     3.0450128886
   84      H      -3.6923211830    -1.2185006745     4.4374818298
   85      H       4.1944309127    -1.8271162294     6.2993638258
   86      H       3.1629210205     0.0864085503     7.4773855904
   87      H       1.0910608811     1.1104947162     6.6420814353
   88      H      -0.0300195034     0.2350800857     4.6290087075
   89      H       1.0062316162    -4.0818798979     1.2997636480
   90      H       2.8432978538    -5.7129585125     1.1828327263
   91      H       4.7034552250    -5.6346638662     2.7895341369
   92      H       4.7570108405    -3.9330699319     4.5768605499
   93      H      -3.2193198622    -3.9390868889     1.0250807472
   94      H      -7.6797438568    -3.7192542278    -1.1585032004
   95      H      -7.2906131565     1.3401434819    -1.5289331566
   96      H      -2.8344349052     1.2073774702     0.6742859061
   97      H      -2.6716839985    -6.6126041193     1.5365896202
   98      H      -2.8095432657    -9.0660553202     1.7097234756
   99      H      -4.7431873222   -10.3174181154     0.9036772182
  100      H      -7.1547061774   -10.2001474225    -0.2619384112
  101      H      -8.8775377205    -8.7666248058    -1.2295050491
  102      H      -8.6277176059    -6.3212193209    -1.3575547813
  103      H      -1.6883369761     6.2933269895     0.5994777748
  104      H      -1.8955771401     3.8429332583     0.7834803988
  105      H      -3.4390168428     7.6749313988    -0.3868750877
  106      H      -7.8681054496     3.9568524633    -2.0771186993
  107      H      -7.7853278971     6.4123120712    -2.3076761136
  108      H      -5.8745049698     7.7224120366    -1.5458300700
  109      H     -11.3097266666    -0.7323273735    -0.7262324226
  110      H      -9.6071666809    -1.6310744911    -4.5315398199
  111      H      -9.9891332201    -0.5349795535     1.1965097049
  112      H      -8.3834086457     0.1434028072     0.9312645732
  113      H      -8.5678802662    -1.5772668196     1.2122133515
  114      H      -7.2808380214    -1.7420194576    -4.8405219484
  115      H      -6.5499135656    -2.6523212960    -3.5208021377
  116      H      -6.2396959208    -0.9335107159    -3.6690836894
  117      H     -15.2917115524    -0.4722038041    -5.9709902020
  118      H     -14.1480950392     1.3544636591    -7.1843952014
  119      H     -11.8703392872     2.0367021179    -6.5482700869
  120      H     -10.6714887568     0.9201090902    -4.7046363942
  121      H     -11.9950726035    -3.3186447291    -1.3741162579
  122      H     -13.9900187813    -4.7552003264    -1.2068143146
  123      H     -15.9496040266    -4.3881583305    -2.6519929368
  124      H     -15.9476978432    -2.5649541982    -4.3208237108
 ----------------------------------------------------------------

    8   -2925.5249667110      7.46E-09 Convergence criterion met
 Total energy in the final basis set = -2925.52496671

         TDDFT/TDA Excitation Energies
 ---------------------------------------------------

 Excited state   1: excitation energy (eV) =    2.5175
 Total energy for state  1:                 -2925.43245086 au
    Multiplicity: Singlet
    Trans. Mom.:  0.0205 X   0.0449 Y  -0.0013 Z
    Strength   :     0.0001502197
    D(245) --> V(  1) amplitude =  0.2423
    D(252) --> V(  1) amplitude =  0.9579

 Excited state   2: excitation energy (eV) =    2.8567
 Total energy for state  2:                 -2925.41998337 au
    Multiplicity: Singlet
    Trans. Mom.:  0.1463 X  -0.0325 Y   0.0769 Z
    Strength   :     0.0019867728
    D(241) --> V(  1) amplitude =  0.2174
    D(251) --> V(  1) amplitude =  0.9648

 ---------------------------------------------------

 Final energy is   -2925.43245085977
 **  OPTIMIZATION CONVERGED  **

                    Orbital Energies (a.u.)
 --------------------------------------------------------------

 Alpha MOs
 -- Occupied --
-14.690 -14.688 -10.493 -10.492 -10.486 -10.486 -10.483 -10.483
-10.470 -10.470 -10.470 -10.469 -10.469 -10.469 -10.469 -10.469
-10.469 -10.468 -10.467 -10.467 -10.467 -10.467 -10.466 -10.466
-10.466 -10.465 -10.464 -10.464 -10.463 -10.463 -10.463 -10.463
-10.462 -10.460 -10.460 -10.459 -10.459 -10.459 -10.452 -10.451
-10.449 -10.448 -10.448 -10.448 -10.448 -10.448 -10.447 -10.446
-10.446 -10.446 -10.446 -10.445 -10.444 -10.444 -10.444 -10.444
-10.444 -10.444 -10.444 -10.443 -10.441 -10.441 -10.440 -10.440
-10.440 -10.439 -10.437 -10.437 -10.435 -10.435 -10.434 -10.433
-10.432 -10.429  -6.953  -6.949  -1.110  -1.108  -1.021  -1.020
 -0.977  -0.975  -0.966  -0.963  -0.952  -0.948  -0.945  -0.945
 -0.938  -0.937  -0.913  -0.904  -0.888  -0.886  -0.882  -0.882
 -0.863  -0.861  -0.853  -0.852  -0.851  -0.851  -0.845  -0.843
 -0.828  -0.819  -0.817  -0.812  -0.809  -0.808  -0.808  -0.806
 -0.777  -0.773  -0.773  -0.772  -0.741  -0.739  -0.732  -0.731
 -0.728  -0.726  -0.699  -0.696  -0.694  -0.689  -0.685  -0.685
 -0.680  -0.672  -0.658  -0.655  -0.654  -0.651  -0.648  -0.645
 -0.643  -0.642  -0.603  -0.601  -0.597  -0.595  -0.594  -0.593
 -0.588  -0.588  -0.586  -0.581  -0.581  -0.575  -0.572  -0.558
 -0.552  -0.552  -0.549  -0.545  -0.533  -0.531  -0.527  -0.523
 -0.520  -0.518  -0.518  -0.514  -0.509  -0.507  -0.504  -0.502
 -0.500  -0.499  -0.498  -0.496  -0.493  -0.490  -0.489  -0.488
 -0.488  -0.488  -0.487  -0.485  -0.484  -0.483  -0.481  -0.479
 -0.477  -0.475  -0.473  -0.473  -0.472  -0.472  -0.468  -0.468
 -0.468  -0.462  -0.450  -0.447  -0.446  -0.444  -0.442  -0.435
 -0.432  -0.430  -0.427  -0.424  -0.424  -0.422  -0.421  -0.416
 -0.412  -0.411  -0.410  -0.408  -0.403  -0.400  -0.400  -0.399
 -0.399  -0.399  -0.398  -0.396  -0.393  -0.392  -0.390  -0.389
 -0.385  -0.376  -0.373  -0.372  -0.367  -0.357  -0.355  -0.344
 -0.329  -0.326  -0.326  -0.320  -0.300  -0.299  -0.296  -0.296
 -0.288  -0.286  -0.286  -0.285  -0.283  -0.267  -0.261  -0.260
 -0.255  -0.250  -0.236  -0.229

          Ground-State Mulliken Net Atomic Charges

     Atom                 Charge (a.u.)
  ----------------------------------------
      1 C                    -0.386646
      2 C                     0.059921
      3 C                    -0.228774
      4 C                     0.057347
      5 C                    -0.386484
      6 C                     0.355196
      7 N                    -0.741248
      8 C                    -0.758393
      9 C                    -0.761692
     10 C                     0.333036
     11 C                     0.097718
     12 C                     0.092446
     13 C                     0.339870
     14 C                    -0.346233
     15 C                    -0.231823
     16 C                    -0.232422
     17 C                    -0.286205
     18 C                    -0.285978
     19 C                    -0.231357
     20 C                    -0.231185
     21 C                    -0.346435
     22 C                    -0.151761
     23 C                    -0.145382
     24 B                     0.681696
     25 C                    -0.148087
     26 C                    -0.149483
     27 B                     0.693546
     28 C                    -0.389393
     29 C                     0.106944
     30 C                     0.098472
     31 C                    -0.392083
     32 C                    -0.390598
     33 C                     0.098597
     34 C                     0.112184
     35 C                    -0.396544
     36 C                    -0.381609
     37 C                    -0.203919
     38 C                    -0.332988
     39 C                     0.250062
     40 C                    -0.065489
     41 C                     0.201655
     42 C                    -0.331003
     43 C                    -0.204893
     44 C                    -0.379055
     45 C                     0.198055
     46 C                    -0.203345
     47 C                    -0.381945
     48 C                     0.198551
     49 C                    -0.064840
     50 C                     0.253820
     51 C                    -0.335107
     52 C                     0.194755
     53 C                    -0.375101
     54 C                    -0.205881
     55 C                    -0.331756
     56 C                    -0.352455
     57 C                     0.045216
     58 C                    -0.211663
     59 C                     0.047847
     60 C                    -0.343086
     61 C                     0.316368
     62 N                    -0.740088
     63 C                    -0.759761
     64 C                    -0.756670
     65 C                     0.339074
     66 C                     0.097252
     67 C                     0.088046
     68 C                     0.345373
     69 C                    -0.340853
     70 C                    -0.229108
     71 C                    -0.235786
     72 C                    -0.281471
     73 C                    -0.280804
     74 C                    -0.235526
     75 C                    -0.228494
     76 C                    -0.341970
     77 H                     0.248732
     78 H                     0.250287
     79 H                     0.245780
     80 H                     0.238217
     81 H                     0.247804
     82 H                     0.249808
     83 H                     0.247036
     84 H                     0.238977
     85 H                     0.207409
     86 H                     0.215229
     87 H                     0.218518
     88 H                     0.250317
     89 H                     0.247544
     90 H                     0.218183
     91 H                     0.215391
     92 H                     0.207307
     93 H                     0.233130
     94 H                     0.231598
     95 H                     0.230375
     96 H                     0.229523
     97 H                     0.222535
     98 H                     0.229667
     99 H                     0.222768
    100 H                     0.222879
    101 H                     0.229436
    102 H                     0.221670
    103 H                     0.229297
    104 H                     0.221681
    105 H                     0.222981
    106 H                     0.221264
    107 H                     0.229347
    108 H                     0.222899
    109 H                     0.235703
    110 H                     0.236459
    111 H                     0.240972
    112 H                     0.249357
    113 H                     0.245726
    114 H                     0.240404
    115 H                     0.248310
    116 H                     0.245830
    117 H                     0.205298
    118 H                     0.214708
    119 H                     0.216082
    120 H                     0.233862
    121 H                     0.233978
    122 H                     0.215869
    123 H                     0.214586
    124 H                     0.205092
  ----------------------------------------
  Sum of atomic charges =    -0.000000

                    Cartesian Multipole Moments
 -----------------------------------------------------------------
    Charge (ESU x 10^10)
                -0.0000
    Dipole Moment (Debye)
         X       0.6172      Y       0.1455      Z       0.0216
       Tot       0.6345
    Quadrupole Moments (Debye-Ang)
        XX    -448.1204     XY       2.7148     YY    -370.2740
        XZ      -0.0391     YZ      -3.7590     ZZ    -433.7523

 Total job time:  66127.22s(wall), 421861.72s(cpu)
        *  Thank you very much for using Q-Chem.  Have a nice day.  *
