 Q-Chem 5.1, Q-Chem, Inc., Pleasanton, CA (2018)
 Q-Chem 5.1.1 for Intel X86 EM64T Linux

User input:
--------------------------------------------------------------
$rem
threads 8
jobtype	opt
method PBEh-3c
basis def2-mSVP
mem_static	1024
mem_total	12000
sym_ignore	true
cis_n_roots             2
cis_singlets            true
cis_triplets		false
rpa                     false
cis_state_deriv         1
$end

$molecule
read s1opt.mol
$end

--------------------------------------------------------------

   15   -2925.5246083567      7.22e-09  Convergence criterion met
 Total energy in the final basis set =    -2925.5246083567
   12   -2925.5244756310      6.08e-09  Convergence criterion met
 Total energy in the final basis set =    -2925.5244756310
   12   -2925.5240607573      5.13e-09  Convergence criterion met
 Total energy in the final basis set =    -2925.5240607573
   11   -2925.5230194970      9.02e-09  Convergence criterion met
 Total energy in the final basis set =    -2925.5230194970
   10   -2925.5230016077      7.30e-09  Convergence criterion met
 Total energy in the final basis set =    -2925.5230016077
   11   -2925.5220421175      8.46e-09  Convergence criterion met
 Total energy in the final basis set =    -2925.5220421175
   12   -2925.5200490479      6.11e-09  Convergence criterion met
 Total energy in the final basis set =    -2925.5200490479
   11   -2925.5214050578      8.75e-09  Convergence criterion met
   11   -2925.5206105991      5.59e-09  Convergence criterion met
 Total energy in the final basis set =    -2925.5206105991
   10   -2925.5203362840      6.89e-09  Convergence criterion met
 Total energy in the final basis set =    -2925.5203362840
   10   -2925.5202272384      5.79e-09  Convergence criterion met
 Total energy in the final basis set =    -2925.5202272384
    9   -2925.5202145944      7.19e-09  Convergence criterion met
 Total energy in the final basis set =    -2925.5202145944
    9   -2925.5202884680      4.91e-09  Convergence criterion met
 Total energy in the final basis set =    -2925.5202884680
    8   -2925.5202863545      9.79e-09  Convergence criterion met
 Total energy in the final basis set =    -2925.5202863545

             Standard Nuclear Orientation (Angstroms)
    I     Atom           X                Y                Z
 ----------------------------------------------------------------
    1      N       0.1293163829    -0.4471422637     0.2218964492
    2      C       0.0928120619    -0.2272805811     1.5837012004
    3      C       1.2673101563    -0.4931686282    -0.5797543729
    4      C       2.5902986722    -0.2324380047    -0.2500586207
    5      H       2.8899647398     0.0351439144     0.7526877282
    6      C       3.5235602918    -0.3020395125    -1.2724238854
    7      H       4.5636082390    -0.1127721065    -1.0481038865
    8      C      -0.9870393012    -0.6850008475    -0.5718836419
    9      C      -2.3182167630    -0.8375495372    -0.1981371237
   10      H      -2.6398526965    -0.7673302594     0.8306132433
   11      C      -3.2356740077    -1.1145945576    -1.1984288699
   12      H      -4.2782491153    -1.2298895492    -0.9373328257
   13      C      -2.8375475502    -1.2661040086    -2.5237575172
   14      H      -3.5770777404    -1.4881873187    -3.2804277672
   15      C      -1.4976853230    -1.1628926975    -2.8796713697
   16      H      -1.1910874071    -1.3183234252    -3.9055491753
   17      C      -0.5702215066    -0.8758671986    -1.8964313804
   18      C       3.1456194460    -0.5916306793    -2.5810998712
   19      H       3.8989783442    -0.6321508814    -3.3553290302
   20      C       1.8116302742    -0.8051202309    -2.9090475938
   21      H       1.5204454064    -0.9965882065    -3.9333582722
   22      C       0.8696660920    -0.7519787079    -1.9020039645
   23      C      -0.8939391426     0.6123130327     2.1248010248
   24      H      -1.5511220165     1.1607597532     1.4616270793
   25      C      -0.9696689237     0.7943511944     3.4854718659
   26      C       1.0176607611    -0.8710982313     2.4167292417
   27      H       1.7333297844    -1.5602430397     1.9870157118
   28      C       0.9298994959    -0.7240234630     3.7810894125
   29      C      -0.0769530110     0.1039921232     4.3441782972
   30      C      -1.9908905484     1.7112026655     4.0798934479
   31      H      -2.5797263209     2.2183394119     3.3162930176
   32      H      -1.5153405506     2.4653311316     4.7071870239
   33      H      -2.6705271301     1.1545718852     4.7271856255
   34      C       1.8632634638    -1.4671676581     4.6827398069
   35      H       2.5644800867    -2.0840190386     4.1216132687
   36      H       2.4314282956    -0.7712351850     5.3006737907
   37      H       1.3101864829    -2.1114170833     5.3668967671
   38      B      -0.2133160313     0.1898552435     5.9130496484
   39      C       0.6094738077     1.2014309306     6.6977449587
   40      C       1.3983222825     2.1619204822     6.0371641023
   41      H       1.4093967210     2.2026300986     4.9516723387
   42      C       2.1592336207     3.0513639238     6.7500108068
   43      C       2.1759624139     3.0110855471     8.1756994873
   44      C       1.4163699436     2.0711382924     8.8384374387
   45      H       1.4282876891     2.0200583249     9.9228253958
   46      C       0.6164871219     1.1564048866     8.1272813573
   47      C       3.0820326475     4.0612088799     8.6348733358
   48      C       3.5164597102     4.5175598130     9.8538126667
   49      H       3.1767063104     4.0761071129    10.7822014899
   50      C       3.5775863595     4.6964992108     7.4754489608
   51      C       4.4783013039     5.7566071869     7.4747797491
   52      C       3.0449900769     4.1179946667     6.3076155382
   53      C       3.4262070178     4.6179959415     5.0878387606
   54      H       3.0447942676     4.2110154516     4.1590727172
   55      C       4.4319073670     5.5941593090     9.8850142165
   56      H       4.7719283271     5.9510873557    10.8486761522
   57      C       4.9067850194     6.2044958235     8.7468524515
   58      H       5.6076538489     7.0262911032     8.8258559176
   59      C       4.3389212338     5.6944923627     5.0583095807
   60      H       4.6411025016     6.0922090877     4.0976129785
   61      C       4.8560247980     6.2549699968     6.2040094022
   62      H       5.5537333356     7.0801972380     6.1315874235
   63      C      -1.1083125073    -0.8244056077     6.6146209916
   64      C      -1.8953825196    -1.7459156469     5.8924781296
   65      H      -1.8827345442    -1.7381029673     4.8065450889
   66      C      -2.6766509243    -2.6627246882     6.5478098630
   67      C      -2.7017063137    -2.6903565496     7.9718091599
   68      C      -1.9330959211    -1.8066372031     8.6903398278
   69      H      -1.9504545063    -1.8464955476     9.7737892201
   70      C      -1.1202991379    -0.8585800510     8.0408645977
   71      C      -3.5953286653    -3.7683705855     8.3868476726
   72      C      -4.0189546809    -4.2855590126     9.5860525095
   73      H      -3.6966343138    -3.8751390235    10.5351400549
   74      C      -4.0741560964    -4.3619851083     7.2007535849
   75      C      -4.9460780410    -5.4478496915     7.1588984249
   76      C      -3.5505112782    -3.7268370188     6.0570975940
   77      C      -3.9201872234    -4.1979227483     4.8214449335
   78      H      -3.5477250083    -3.7542879135     3.9060988892
   79      C      -4.8062678317    -5.2963212316     4.7497936755
   80      H      -5.0952539614    -5.6667312375     3.7741552418
   81      C      -5.3105205724    -5.9116473683     5.8718487804
   82      H      -5.9854295228    -6.7528930924     5.7697296346
   83      C      -4.9044980084    -5.3883008580     9.5732560332
   84      H      -5.2329347395    -5.7916744971    10.5227748321
   85      C      -5.3615294513    -5.9629129296     8.4098976749
   86      H      -6.0380984544    -6.8078618472     8.4515261237
   87      B      -0.2159914248     0.0948284125     8.8530907183
   88      C      -0.1568827840    -0.2171801873    10.4004404542
   89      C      -1.1548030382     0.2327328011    11.2731369770
   90      C      -1.3325355288    -0.3848210853    12.5064799558
   91      H      -2.1594558289    -0.1006353996    13.1477349962
   92      C      -0.5100098951    -1.4360098972    12.8792719117
   93      C       0.5525548974    -1.8093323131    12.0722406094
   94      H       1.1981371514    -2.6206335058    12.3885043354
   95      C       0.7302964044    -1.2130750521    10.8306785383
   96      N      -0.8381419949    -2.2389455284    13.9951276936
   97      C      -1.3746069392    -3.5012351813    13.8663410007
   98      C      -0.8136507849    -1.9020527720    15.3283955705
   99      C      -0.3677543016    -0.7322591493    15.9279994183
  100      H       0.0234760547     0.0854714239    15.3369383581
  101      C      -0.4426491057    -0.6568099304    17.3067474688
  102      H      -0.1031078291     0.2420767023    17.8045657302
  103      C      -1.6260894665    -4.2326089382    12.7087570177
  104      H      -1.3812957922    -3.8431744714    11.7288248153
  105      C      -2.1925073293    -5.4859237855    12.8527549152
  106      H      -2.3965464953    -6.0745476899    11.9669077334
  107      C      -2.5015536749    -6.0057235806    14.1137094910
  108      H      -2.9407228077    -6.9914096057    14.1912352425
  109      C      -2.2507190751    -5.2710237617    15.2576653615
  110      H      -2.4955242659    -5.6754961689    16.2319275617
  111      C      -1.6862686944    -4.0042445505    15.1397560561
  112      C      -0.9433936195    -1.7153108944    18.0711545869
  113      H      -0.9850542633    -1.6209101012    19.1479722048
  114      C      -1.3832828518    -2.8771472493    17.4644764926
  115      H      -1.7692718122    -3.6960562053    18.0588056363
  116      C      -1.3228572318    -2.9783296280    16.0797955780
  117      C       1.8036979859    -1.7190055750     9.9079767183
  118      H       2.4853095558    -2.3991491198    10.4189630231
  119      H       2.3918955942    -0.9023967282     9.4882940282
  120      H       1.3671684053    -2.2608986452     9.0651265900
  121      C      -2.1197479189     1.2895498829    10.8143293241
  122      H      -2.7725271754     1.6214141421    11.6215733626
  123      H      -1.5983013035     2.1632735382    10.4213668771
  124      H      -2.7539920606     0.9116571037    10.0087929726
 ----------------------------------------------------------------

    7   -2925.5202841578      6.74e-09  Convergence criterion met
 Total energy in the final basis set =    -2925.5202841578

         TDDFT/TDA Excitation Energies
 ---------------------------------------------------

 Excited state   1: excitation energy (eV) =    2.5248
 Total energy for state  1:                 -2925.42749973 au
    Multiplicity: Singlet
    Trans. Mom.: -0.0848 X  -0.0907 Y   0.1421 Z
    Strength   :     0.0022032624
    D(245) --> V(  1) amplitude = -0.2326
    D(252) --> V(  1) amplitude =  0.9569

 Excited state   2: excitation energy (eV) =    2.8521
 Total energy for state  2:                 -2925.41547197 au
    Multiplicity: Singlet
    Trans. Mom.: -0.0387 X  -0.0212 Y   0.0362 Z
    Strength   :     0.0002270858
    D(247) --> V(  1) amplitude = -0.9471

 ---------------------------------------------------

 Final energy is   -2925.42749972520
 **  OPTIMIZATION CONVERGED  **

                    Orbital Energies (a.u.)
 --------------------------------------------------------------

 Alpha MOs
 -- Occupied --
-14.691 -14.687 -10.493 -10.492 -10.487 -10.486 -10.483 -10.483
-10.472 -10.471 -10.471 -10.470 -10.469 -10.468 -10.468 -10.468
-10.468 -10.468 -10.467 -10.467 -10.467 -10.466 -10.465 -10.465
-10.465 -10.465 -10.464 -10.464 -10.464 -10.463 -10.463 -10.462
-10.461 -10.460 -10.459 -10.459 -10.459 -10.458 -10.453 -10.450
-10.450 -10.448 -10.448 -10.448 -10.448 -10.447 -10.447 -10.447
-10.447 -10.446 -10.446 -10.446 -10.446 -10.446 -10.445 -10.445
-10.444 -10.444 -10.443 -10.443 -10.443 -10.441 -10.441 -10.440
-10.440 -10.439 -10.438 -10.437 -10.436 -10.434 -10.434 -10.434
-10.432 -10.429  -6.956  -6.947  -1.110  -1.109  -1.021  -1.018
 -0.978  -0.975  -0.966  -0.963  -0.952  -0.948  -0.946  -0.946
 -0.939  -0.936  -0.913  -0.904  -0.888  -0.887  -0.883  -0.883
 -0.864  -0.860  -0.854  -0.853  -0.851  -0.849  -0.846  -0.844
 -0.828  -0.820  -0.816  -0.811  -0.809  -0.808  -0.808  -0.807
 -0.777  -0.774  -0.773  -0.772  -0.741  -0.739  -0.732  -0.731
 -0.728  -0.725  -0.700  -0.696  -0.693  -0.689  -0.686  -0.684
 -0.680  -0.672  -0.658  -0.656  -0.654  -0.651  -0.650  -0.645
 -0.643  -0.642  -0.603  -0.601  -0.597  -0.595  -0.593  -0.593
 -0.589  -0.588  -0.586  -0.581  -0.581  -0.575  -0.572  -0.560
 -0.553  -0.552  -0.549  -0.546  -0.533  -0.531  -0.527  -0.523
 -0.520  -0.518  -0.518  -0.514  -0.509  -0.507  -0.505  -0.503
 -0.500  -0.499  -0.498  -0.495  -0.493  -0.491  -0.490  -0.489
 -0.489  -0.488  -0.487  -0.485  -0.484  -0.483  -0.480  -0.480
 -0.477  -0.476  -0.474  -0.474  -0.472  -0.471  -0.469  -0.468
 -0.468  -0.461  -0.451  -0.447  -0.445  -0.444  -0.442  -0.435
 -0.432  -0.430  -0.427  -0.424  -0.424  -0.423  -0.421  -0.416
 -0.413  -0.411  -0.411  -0.407  -0.403  -0.401  -0.400  -0.400
 -0.398  -0.398  -0.397  -0.396  -0.393  -0.392  -0.390  -0.389
 -0.386  -0.376  -0.373  -0.372  -0.366  -0.358  -0.355  -0.344
 -0.329  -0.327  -0.326  -0.319  -0.301  -0.297  -0.297  -0.297
 -0.286  -0.286  -0.286  -0.285  -0.282  -0.267  -0.260  -0.259
 -0.255  -0.251  -0.238  -0.229

          Ground-State Mulliken Net Atomic Charges

     Atom                 Charge (a.u.)
  ----------------------------------------
      1 N                    -0.743916
      2 C                     0.359858
      3 C                     0.342658
      4 C                    -0.284779
      5 H                     0.246834
      6 C                    -0.231582
      7 H                     0.218642
      8 C                     0.333900
      9 C                    -0.284319
     10 H                     0.247792
     11 C                    -0.230426
     12 H                     0.217958
     13 C                    -0.231906
     14 H                     0.215504
     15 C                    -0.344345
     16 H                     0.207051
     17 C                     0.097248
     18 C                    -0.231874
     19 H                     0.215550
     20 C                    -0.342639
     21 H                     0.207324
     22 C                     0.085486
     23 C                    -0.386895
     24 H                     0.250934
     25 C                     0.066839
     26 C                    -0.389749
     27 H                     0.247539
     28 C                     0.055346
     29 C                    -0.231854
     30 C                    -0.756378
     31 H                     0.238313
     32 H                     0.245772
     33 H                     0.246124
     34 C                    -0.762633
     35 H                     0.239800
     36 H                     0.247738
     37 H                     0.250130
     38 B                     0.676995
     39 C                    -0.143661
     40 C                    -0.386763
     41 H                     0.231009
     42 C                     0.093650
     43 C                     0.114427
     44 C                    -0.403277
     45 H                     0.222526
     46 C                    -0.151103
     47 C                     0.195306
     48 C                    -0.381567
     49 H                     0.219815
     50 C                    -0.064899
     51 C                     0.253142
     52 C                     0.198527
     53 C                    -0.374871
     54 H                     0.222235
     55 C                    -0.203176
     56 H                     0.228666
     57 C                    -0.334683
     58 H                     0.223359
     59 C                    -0.205757
     60 H                     0.229938
     61 C                    -0.331253
     62 H                     0.223006
     63 C                    -0.155935
     64 C                    -0.387123
     65 H                     0.230862
     66 C                     0.098615
     67 C                     0.106828
     68 C                    -0.386029
     69 H                     0.234749
     70 C                    -0.140269
     71 C                     0.204178
     72 C                    -0.396269
     73 H                     0.240307
     74 C                    -0.066408
     75 C                     0.249869
     76 C                     0.198972
     77 C                    -0.378971
     78 H                     0.221011
     79 C                    -0.204670
     80 H                     0.229193
     81 C                    -0.331835
     82 H                     0.222355
     83 C                    -0.210863
     84 H                     0.233762
     85 C                    -0.333228
     86 H                     0.222306
     87 B                     0.675374
     88 C                    -0.209726
     89 C                     0.045498
     90 C                    -0.312066
     91 H                     0.232681
     92 C                     0.273074
     93 C                    -0.331479
     94 H                     0.234728
     95 C                     0.041587
     96 N                    -0.731943
     97 C                     0.335115
     98 C                     0.352436
     99 C                    -0.282792
    100 H                     0.232728
    101 C                    -0.238108
    102 H                     0.216784
    103 C                    -0.287037
    104 H                     0.241469
    105 C                    -0.247202
    106 H                     0.223854
    107 C                    -0.226654
    108 H                     0.214229
    109 C                    -0.347927
    110 H                     0.205584
    111 C                     0.110522
    112 C                    -0.228767
    113 H                     0.214598
    114 C                    -0.344051
    115 H                     0.205259
    116 C                     0.088373
    117 C                    -0.761274
    118 H                     0.243154
    119 H                     0.248693
    120 H                     0.249376
    121 C                    -0.751677
    122 H                     0.240381
    123 H                     0.242433
    124 H                     0.248729
  ----------------------------------------
  Sum of atomic charges =    -0.000000

                    Cartesian Multipole Moments
 -----------------------------------------------------------------
    Charge (ESU x 10^10)
                -0.0000
    Dipole Moment (Debye)
         X       0.4507      Y       1.5634      Z      -0.3828
       Tot       1.6715
    Quadrupole Moments (Debye-Ang)
        XX    -406.4448     XY      35.2329     YY    -403.7846
        XZ       5.4638     YZ      21.9829     ZZ    -438.3649

 Total job time:  77127.33s(wall), 548493.56s(cpu)
        *  Thank you very much for using Q-Chem.  Have a nice day.  *
