 Q-Chem 5.1, Q-Chem, Inc., Pleasanton, CA (2018)
 Q-Chem 5.1.1 for Intel X86 EM64T Linux

User input:
--------------------------------------------------------------
$rem
threads 8
jobtype	sp
method PBEh-3c
basis def2-mSVP
mem_static	1024
mem_total	14000
sym_ignore	true
cis_n_roots             6
cis_singlets            true
cis_triplets		true
rpa                     false
calc_soc 		true
cis_moments             true
cis_relaxed_density	true
$end

$molecule
read s1opt.mol
$end

--------------------------------------------------------------

             Standard Nuclear Orientation (Angstroms)
    I     Atom           X                Y                Z
 ----------------------------------------------------------------
    1      N       0.0000000000     0.0000000000     0.0000000000
    2      C       0.0000000000     0.0000000000     1.3803660000
    3      C       1.1259416539     0.0000000000    -0.8129430481
    4      C       2.4587146921     0.1299406481    -0.4480982239
    5      H       2.7623109939     0.2512651583     0.5818078862
    6      C       3.3959664736     0.1223790656    -1.4672506637
    7      H       4.4441251651     0.2109914189    -1.2197223947
    8      C      -1.1311754579    -0.0608109468    -0.8063245475
    9      C      -2.4622149590    -0.2013671108    -0.4293057826
   10      H      -2.7640292372    -0.2514899724     0.6070054260
   11      C      -3.4023100094    -0.3122170956    -1.4400873600
   12      H      -4.4461626698    -0.4170366021    -1.1795897287
   13      C      -3.0216043314    -0.3147470110    -2.7789762081
   14      H      -3.7770790027    -0.4124713926    -3.5460448918
   15      C      -1.6819786744    -0.2245688705    -3.1423081813
   16      H      -1.3970509774    -0.2698036512    -4.1847468300
   17      C      -0.7292085397    -0.1001289870    -2.1496061386
   18      C       3.0098405649     0.0185858154    -2.8011500115
   19      H       3.7657661129     0.0171665170    -3.5737303952
   20      C       1.6671511276    -0.0589796194    -3.1565059024
   21      H       1.3764187419    -0.1077528317    -4.1972223379
   22      C       0.7183830426    -0.0629300512    -2.1543867304
   23      C      -0.9153408950     0.8019827812     2.0779438779
   24      H      -1.5564761422     1.4842092225     1.5341449065
   25      C      -0.9447276601     0.7750394264     3.4532231071
   26      C       0.8971563584    -0.8252947496     2.0762038103
   27      H       1.5520718432    -1.4885725260     1.5260523568
   28      C       0.8565057063    -0.8817716221     3.4500927468
   29      C      -0.0738233126    -0.0865099375     4.1672443491
   30      C      -1.9005819237     1.6379906627     4.2153110119
   31      H      -2.4866885342     2.2791446625     3.5580894189
   32      H      -1.3723107157     2.2663761222     4.9324252335
   33      H      -2.5876038775     1.0192224967     4.7953549898
   34      C       1.7455845933    -1.8217085103     4.2018935833
   35      H       2.4468944341    -2.3342379142     3.5445301519
   36      H       2.3116586530    -1.2883970301     4.9660682323
   37      H       1.1523790381    -2.5732007878     4.7249234561
   38      B      -0.1827619271    -0.2274049917     5.7382605063
   39      C       0.6334791663     0.6686424417     6.6646700581
   40      C       1.4700153488     1.6916500011     6.1679091505
   41      H       1.5399117376     1.8551534604     5.0965868357
   42      C       2.1977749487     2.4836993813     7.0237886161
   43      C       2.1154260129     2.2650728621     8.4295005880
   44      C       1.3041708848     1.2764815443     8.9332342416
   45      H       1.2415828278     1.1155440466    10.0050796225
   46      C       0.5477497513     0.4608588915     8.0768752660
   47      C       2.9878673294     3.2210967009     9.0924274690
   48      C       3.3228079848     3.4841154136    10.3965369826
   49      H       2.9054701212     2.9155833894    11.2185490803
   50      C       3.5714346329     3.9994384441     8.0730882626
   51      C       4.4727814504     5.0333252667     8.3010143869
   52      C       3.1224415352     3.5941173659     6.7991386371
   53      C       3.5993338690     4.2640685543     5.7014520057
   54      H       3.2912358158     4.0027985772     4.6965671554
   55      C       4.2390084299     4.5270827376    10.6563884374
   56      H       4.5057478256     4.7352162687    11.6847467457
   57      C       4.8026107505     5.2850964504     9.6555500084
   58      H       5.4998045904     6.0750487638     9.9057822009
   59      C       4.5148979886     5.3222871367     5.9003388390
   60      H       4.8890938293     5.8507684023     5.0328600670
   61      C       4.9477034802     5.7050145643     7.1493314092
   62      H       5.6514504744     6.5220322745     7.2497998195
   63      C      -1.1099199714    -1.3092929466     6.2902308370
   64      C      -1.8923044333    -2.1207749800     5.4408738394
   65      H      -1.8510600280    -1.9819667898     4.3650727666
   66      C      -2.7132947959    -3.0915167563     5.9569289214
   67      C      -2.7778428278    -3.2956428123     7.3663164348
   68      C      -2.0230056002    -2.5170979656     8.2098440072
   69      H      -2.0728235964    -2.6763743414     9.2824265921
   70      C      -1.1818954508    -1.5112340269     7.7026343931
   71      C      -3.7132523623    -4.3859461603     7.6254379316
   72      C      -4.1809835545    -5.0302679446     8.7449033579
   73      H      -3.8564166114    -4.7542206690     9.7405209536
   74      C      -4.1869512011    -4.8051113885     6.3661245799
   75      C      -5.1041815597    -5.8368487491     6.1796731289
   76      C      -3.6129938829    -4.0534203923     5.3215864922
   77      C      -3.9794314718    -4.3509912608     4.0326054506
   78      H      -3.5728352903    -3.8131332302     3.1854278655
   79      C      -4.9099485826    -5.3914775094     3.8127585403
   80      H      -5.1962297454    -5.6243495787     2.7949288898
   81      C      -5.4626663423    -6.1195357416     4.8406394080
   82      H      -6.1714358082    -6.9101152933     4.6253321663
   83      C      -5.1119256904    -6.0813745116     8.5838749923
   84      H      -5.4772108386    -6.5867473032     9.4690668569
   85      C      -5.5688510913    -6.4837517905     7.3505795663
   86      H      -6.2827290692    -7.2951703964     7.2762158107
   87      B      -0.3483886813    -0.6446423027     8.6554343892
   88      C      -0.4109092795    -0.9151162392    10.2128637626
   89      C      -1.4348903686    -0.3646469391    10.9956236224
   90      C      -1.5067736831    -0.6458262936    12.3547638608
   91      H      -2.3166724726    -0.2451143582    12.9542563380
   92      C      -0.5544902600    -1.4559247295    12.9522681799
   93      C       0.4685061061    -1.9979598404    12.1914069665
   94      H       1.2121336916    -2.6231125451    12.6723495891
   95      C       0.5385682755    -1.7439190837    10.8266301838
   96      N      -0.6427505299    -1.7524822444    14.3307301519
   97      C      -0.8580077925    -3.0087517176    14.8574635951
   98      C      -0.6524299371    -0.8347758983    15.3604751165
   99      C      -0.5006515390     0.5461649708    15.3192936689
  100      H      -0.3413659402     1.0672840037    14.3850094506
  101      C      -0.5691091413     1.2347255775    16.5172554303
  102      H      -0.4584707517     2.3112907839    16.5114476751
  103      C      -0.9967853621    -4.2305215423    14.2075943670
  104      H      -0.9144528397    -4.3097787903    13.1319975419
  105      C      -1.2585868269    -5.3453499017    14.9838060570
  106      H      -1.3738534690    -6.3068056987    14.5003265686
  107      C      -1.3857720727    -5.2588199360    16.3732032439
  108      H      -1.5932648392    -6.1516805378    16.9479843496
  109      C      -1.2561322081    -4.0406080891    17.0119819842
  110      H      -1.3680693724    -3.9697582295    18.0870949700
  111      C      -0.9929795230    -2.9046290334    16.2526056453
  112      C      -0.7800878271     0.5759006904    17.7320723922
  113      H      -0.8320101316     1.1486318914    18.6484945680
  114      C      -0.9239348159    -0.7976735005    17.7668255981
  115      H      -1.0895149737    -1.3104847237    18.7064830344
  116      C      -0.8592541566    -1.5115747124    16.5752000066
  117      C       1.6348298503    -2.3688273138    10.0116197472
  118      H       2.2995189647    -2.9731632049    10.6290897954
  119      H       2.2396050073    -1.6117351965     9.5102363032
  120      H       1.2256918164    -3.0146807568     9.2320427490
  121      C      -2.4864676747     0.5018896108    10.3616134396
  122      H      -3.1428148000     0.9497672945    11.1078191982
  123      H      -2.0395485265     1.3096600959     9.7799591594
  124      H      -3.1092275947    -0.0749983856     9.6748895313
 ----------------------------------------------------------------

   15   -2925.5246083568      7.22e-09  Convergence criterion met
 Total energy in the final basis set =    -2925.5246083568

         TDDFT/TDA Excitation Energies
 ---------------------------------------------------

 Excited state   1: excitation energy (eV) =    2.1763
 Total energy for state  1:                 -2925.44463068 au
    Multiplicity: Triplet
    Trans. Mom.:  0.0000 X   0.0000 Y   0.0000 Z
    Strength   :     0.0000000000
    D(242) --> V(  2) amplitude =  0.2176
    D(247) --> V(  1) amplitude =  0.7788
    D(248) --> V(  1) amplitude =  0.4951

 Excited state   2: excitation energy (eV) =    2.4119
 Total energy for state  2:                 -2925.43597127 au
    Multiplicity: Triplet
    Trans. Mom.:  0.0000 X   0.0000 Y   0.0000 Z
    Strength   :     0.0000000000
    D(246) --> V(  2) amplitude = -0.4656
    D(247) --> V(  1) amplitude = -0.4432
    D(248) --> V(  1) amplitude =  0.6777

 Excited state   3: excitation energy (eV) =    2.4771
 Total energy for state  3:                 -2925.43357502 au
    Multiplicity: Triplet
    Trans. Mom.:  0.0000 X   0.0000 Y   0.0000 Z
    Strength   :     0.0000000000
    D(246) --> V(  1) amplitude =  0.7437
    D(246) --> V(  4) amplitude = -0.2376
    D(247) --> V(  2) amplitude =  0.2366
    D(248) --> V(  2) amplitude = -0.4880

 Excited state   4: excitation energy (eV) =    2.4979
 Total energy for state  4:                 -2925.43281268 au
    Multiplicity: Triplet
    Trans. Mom.:  0.0000 X   0.0000 Y   0.0000 Z
    Strength   :     0.0000000000
    D(245) --> V(  1) amplitude = -0.2603
    D(252) --> V(  1) amplitude =  0.9436

 Excited state   5: excitation energy (eV) =    2.5177
 Total energy for state  5:                 -2925.43208322 au
    Multiplicity: Singlet
    Trans. Mom.:  0.0285 X   0.0425 Y  -0.0081 Z
    Strength   :     0.0001656930
    D(245) --> V(  1) amplitude = -0.2422
    D(252) --> V(  1) amplitude =  0.9579

 Excited state   6: excitation energy (eV) =    2.6951
 Total energy for state  6:                 -2925.42556469 au
    Multiplicity: Triplet
    Trans. Mom.:  0.0000 X   0.0000 Y   0.0000 Z
    Strength   :     0.0000000000
    D(242) --> V(  1) amplitude =  0.6497
    D(244) --> V(  1) amplitude =  0.2506
    D(247) --> V(  2) amplitude =  0.4976
    D(248) --> V(  2) amplitude =  0.2417

 Excited state   7: excitation energy (eV) =    2.8430
 Total energy for state  7:                 -2925.42013101 au
    Multiplicity: Singlet
    Trans. Mom.: -0.0896 X  -0.0914 Y   0.0131 Z
    Strength   :     0.0011525810
    D(247) --> V(  1) amplitude =  0.8187
    D(248) --> V(  1) amplitude =  0.4873

 Excited state   8: excitation energy (eV) =    2.8434
 Total energy for state  8:                 -2925.42011713 au
    Multiplicity: Triplet
    Trans. Mom.:  0.0000 X   0.0000 Y   0.0000 Z
    Strength   :     0.0000000000
    D(241) --> V(  1) amplitude = -0.2506
    D(251) --> V(  1) amplitude =  0.9524

 Excited state   9: excitation energy (eV) =    2.8575
 Total energy for state  9:                 -2925.41959620 au
    Multiplicity: Singlet
    Trans. Mom.: -0.0291 X  -0.0198 Y  -0.1699 Z
    Strength   :     0.0021072028
    D(241) --> V(  1) amplitude = -0.2142
    D(251) --> V(  1) amplitude =  0.9498

 Excited state  10: excitation energy (eV) =    3.1781
 Total energy for state 10:                 -2925.40781552 au
    Multiplicity: Singlet
    Trans. Mom.: -2.2958 X  -2.6129 Y  -0.5093 Z
    Strength   :     0.9621562939
    D(247) --> V(  1) amplitude = -0.4878
    D(248) --> V(  1) amplitude =  0.8174

 Excited state  11: excitation energy (eV) =    3.4006
 Total energy for state 11:                 -2925.39963739 au
    Multiplicity: Singlet
    Trans. Mom.: -0.0038 X  -0.0110 Y  -0.0095 Z
    Strength   :     0.0000189192
    D(250) --> V(  1) amplitude =  0.9987

 Excited state  12: excitation energy (eV) =    3.5545
 Total energy for state 12:                 -2925.39398309 au
    Multiplicity: Singlet
    Trans. Mom.: -0.0195 X  -0.0012 Y  -0.0000 Z
    Strength   :     0.0000331052
    D(249) --> V(  1) amplitude =  0.9993

 ---------------------------------------------------

                    Orbital Energies (a.u.)
 --------------------------------------------------------------

 Alpha MOs
 -- Occupied --
-14.690 -14.688 -10.493 -10.492 -10.486 -10.485 -10.483 -10.483
-10.470 -10.470 -10.470 -10.469 -10.469 -10.469 -10.469 -10.469
-10.469 -10.468 -10.467 -10.467 -10.467 -10.467 -10.466 -10.466
-10.466 -10.465 -10.464 -10.464 -10.463 -10.463 -10.463 -10.463
-10.462 -10.460 -10.460 -10.459 -10.459 -10.459 -10.452 -10.451
-10.449 -10.448 -10.448 -10.448 -10.448 -10.448 -10.447 -10.446
-10.446 -10.446 -10.446 -10.445 -10.444 -10.444 -10.444 -10.444
-10.444 -10.444 -10.444 -10.443 -10.441 -10.441 -10.440 -10.440
-10.440 -10.439 -10.437 -10.437 -10.435 -10.435 -10.434 -10.433
-10.432 -10.429  -6.953  -6.949  -1.110  -1.108  -1.021  -1.019
 -0.977  -0.975  -0.966  -0.963  -0.952  -0.948  -0.945  -0.945
 -0.938  -0.937  -0.913  -0.904  -0.888  -0.886  -0.882  -0.882
 -0.863  -0.861  -0.853  -0.852  -0.851  -0.851  -0.845  -0.843
 -0.828  -0.819  -0.817  -0.812  -0.809  -0.808  -0.808  -0.806
 -0.777  -0.773  -0.773  -0.772  -0.741  -0.739  -0.732  -0.731
 -0.728  -0.726  -0.699  -0.696  -0.694  -0.689  -0.685  -0.685
 -0.680  -0.672  -0.658  -0.655  -0.654  -0.651  -0.648  -0.645
 -0.643  -0.642  -0.603  -0.601  -0.597  -0.595  -0.594  -0.593
 -0.588  -0.588  -0.586  -0.581  -0.581  -0.575  -0.572  -0.558
 -0.552  -0.552  -0.549  -0.545  -0.533  -0.531  -0.527  -0.523
 -0.520  -0.518  -0.518  -0.514  -0.509  -0.507  -0.504  -0.502
 -0.500  -0.499  -0.498  -0.496  -0.493  -0.490  -0.489  -0.488
 -0.488  -0.488  -0.487  -0.485  -0.484  -0.483  -0.481  -0.479
 -0.477  -0.475  -0.473  -0.473  -0.472  -0.472  -0.468  -0.468
 -0.468  -0.462  -0.450  -0.447  -0.446  -0.444  -0.442  -0.435
 -0.432  -0.430  -0.427  -0.424  -0.424  -0.422  -0.421  -0.416
 -0.412  -0.411  -0.410  -0.408  -0.403  -0.400  -0.400  -0.399
 -0.399  -0.399  -0.398  -0.396  -0.393  -0.392  -0.390  -0.389
 -0.385  -0.376  -0.373  -0.372  -0.367  -0.357  -0.355  -0.344
 -0.329  -0.326  -0.326  -0.320  -0.300  -0.299  -0.296  -0.296
 -0.288  -0.286  -0.286  -0.285  -0.283  -0.267  -0.261  -0.260
 -0.255  -0.250  -0.236  -0.229

          Ground-State Mulliken Net Atomic Charges

     Atom                 Charge (a.u.)
  ----------------------------------------
      1 N                    -0.741161
      2 C                     0.354631
      3 C                     0.339852
      4 C                    -0.286171
      5 H                     0.250270
      6 C                    -0.232388
      7 H                     0.218534
      8 C                     0.332862
      9 C                    -0.286102
     10 H                     0.247584
     11 C                    -0.231200
     12 H                     0.218171
     13 C                    -0.231181
     14 H                     0.215323
     15 C                    -0.346581
     16 H                     0.207309
     17 C                     0.097870
     18 C                    -0.231834
     19 H                     0.215209
     20 C                    -0.346356
     21 H                     0.207400
     22 C                     0.092765
     23 C                    -0.386362
     24 H                     0.248713
     25 C                     0.060216
     26 C                    -0.386406
     27 H                     0.250302
     28 C                     0.057579
     29 C                    -0.229276
     30 C                    -0.758685
     31 H                     0.238269
     32 H                     0.247858
     33 H                     0.245772
     34 C                    -0.761665
     35 H                     0.238947
     36 H                     0.247098
     37 H                     0.249776
     38 B                     0.682248
     39 C                    -0.145932
     40 C                    -0.396421
     41 H                     0.229470
     42 C                     0.112346
     43 C                     0.098098
     44 C                    -0.390323
     45 H                     0.230391
     46 C                    -0.151946
     47 C                     0.194959
     48 C                    -0.375067
     49 H                     0.221266
     50 C                    -0.064873
     51 C                     0.253914
     52 C                     0.198592
     53 C                    -0.382076
     54 H                     0.221662
     55 C                    -0.205889
     56 H                     0.229358
     57 C                    -0.331724
     58 H                     0.222914
     59 C                    -0.203355
     60 H                     0.229272
     61 C                    -0.335122
     62 H                     0.222978
     63 C                    -0.148044
     64 C                    -0.389364
     65 H                     0.233168
     66 C                     0.106781
     67 C                     0.098323
     68 C                    -0.391924
     69 H                     0.231585
     70 C                    -0.150178
     71 C                     0.198238
     72 C                    -0.379182
     73 H                     0.221655
     74 C                    -0.065433
     75 C                     0.250134
     76 C                     0.201822
     77 C                    -0.381684
     78 H                     0.222538
     79 C                    -0.203924
     80 H                     0.229670
     81 C                    -0.333044
     82 H                     0.222789
     83 C                    -0.204898
     84 H                     0.229415
     85 C                    -0.330982
     86 H                     0.222864
     87 B                     0.694750
     88 C                    -0.211723
     89 C                     0.047526
     90 C                    -0.342974
     91 H                     0.236455
     92 C                     0.316227
     93 C                    -0.352271
     94 H                     0.235698
     95 C                     0.045034
     96 N                    -0.739939
     97 C                     0.338546
     98 C                     0.345146
     99 C                    -0.281312
    100 H                     0.233837
    101 C                    -0.235725
    102 H                     0.216050
    103 C                    -0.280654
    104 H                     0.233914
    105 C                    -0.235465
    106 H                     0.215833
    107 C                    -0.228414
    108 H                     0.214596
    109 C                    -0.342420
    110 H                     0.205049
    111 C                     0.097813
    112 C                    -0.229154
    113 H                     0.214706
    114 C                    -0.341024
    115 H                     0.205294
    116 C                     0.088445
    117 C                    -0.759813
    118 H                     0.240999
    119 H                     0.249405
    120 H                     0.245751
    121 C                    -0.756797
    122 H                     0.240439
    123 H                     0.245818
    124 H                     0.248347
  ----------------------------------------
  Sum of atomic charges =    -0.000000

                    Cartesian Multipole Moments
 -----------------------------------------------------------------
    Charge (ESU x 10^10)
                -0.0000
    Dipole Moment (Debye)
         X      -0.0249      Y       0.3768      Z      -0.5101
       Tot       0.6347
    Quadrupole Moments (Debye-Ang)
        XX    -405.9779     XY      32.4339     YY    -401.6149
        XZ       4.3262     YZ      13.0000     ZZ    -445.3392

 Total job time:  15146.92s(wall), 56629.63s(cpu)
        *  Thank you very much for using Q-Chem.  Have a nice day.  *
