 Q-Chem 5.1, Q-Chem, Inc., Pleasanton, CA (2018)
 Q-Chem 5.1.1 for Intel X86 EM64T Linux

User input:
--------------------------------------------------------------
$rem
threads 8
jobtype	sp
method PBEh-3c
basis def2-mSVP
mem_static	1024
mem_total	14000
sym_ignore	true
cis_n_roots             6
cis_singlets            true
cis_triplets		true
rpa                     false
calc_soc 		true
cis_moments             true
cis_relaxed_density	true
$end

$molecule
read t1opt.mol
$end

--------------------------------------------------------------

             Standard Nuclear Orientation (Angstroms)
    I     Atom           X                Y                Z
 ----------------------------------------------------------------
    1      N       0.0000000000     0.0000000000     0.0000000000
    2      C       0.0000000000     0.0000000000     1.3792920000
    3      C       1.3074267794     0.0000000000    -0.4407615832
    4      C      -1.0797962889    -0.0088074590     2.2517043390
    5      H      -2.0989669000    -0.0129184903     1.8884957732
    6      C      -0.8027325139    -0.0159277323     3.6061035444
    7      H      -1.6230925557    -0.0285057189     4.3114951803
    8      C       1.7932532308    -0.0648077674    -1.7429541002
    9      H       1.1260908251    -0.1051707324    -2.5938525124
   10      C       3.1648551396    -0.0878182075    -1.9154933100
   11      H       3.5695812282    -0.1388735252    -2.9181155456
   12      C       4.0363051199    -0.0520119841    -0.8238286397
   13      H       5.1045048952    -0.0715750156    -0.9934877291
   14      C       3.5442057307    -0.0016968465     0.4671278228
   15      H       4.2246327233     0.0101701653     1.3091598683
   16      C       2.1677014003     0.0213344866     0.6698456658
   17      C       0.5111594587    -0.0086305001     4.0828493709
   18      H       0.6906865264    -0.0191473518     5.1493364495
   19      C       1.5795228588     0.0130747567     3.2058326738
   20      H       2.5966406757     0.0216426865     3.5769238842
   21      C       1.3284215829     0.0182564638     1.8390802123
   22      C      -1.1292365562    -0.1414829507    -0.8297925516
   23      C      -1.3849190681     0.7954210087    -1.8188447726
   24      H      -0.7387377528     1.6598733766    -1.9173826668
   25      C      -1.9634139230    -1.2405156159    -0.6854492355
   26      H      -1.7450510394    -1.9808199217     0.0750824653
   27      C      -3.0517555116    -1.4118546801    -1.5308395967
   28      C      -2.4520574659     0.6201590491    -2.6921265859
   29      C      -3.2975311924    -0.4867222374    -2.5542972683
   30      C      -3.9361716132    -2.6177746979    -1.3788028171
   31      H      -3.6700341944    -3.2055597262    -0.5008327014
   32      H      -4.9865165873    -2.3363528189    -1.2818873816
   33      H      -3.8651635106    -3.2760635143    -2.2476357166
   34      C      -2.6823574009     1.6063706024    -3.8039134079
   35      H      -1.9654417520     2.4260533825    -3.7726542555
   36      H      -3.6834027997     2.0390887946    -3.7600002985
   37      H      -2.5907389081     1.1258298417    -4.7808698591
   38      B      -4.4535948075    -0.7506249613    -3.5943318110
   39      C      -5.8490667990    -0.1316642328    -3.4382005720
   40      C      -6.1220805607     0.7425960427    -2.3752393264
   41      H      -5.3365397174     0.9639874190    -1.6613594781
   42      C      -7.3678396206     1.3109680435    -2.2430658984
   43      C      -7.9264451014     2.2362758767    -1.2796179936
   44      C      -7.4510063246     2.8927637193    -0.1694421755
   45      H      -6.4305850229     2.7713402384     0.1704583187
   46      C      -8.3304297270     3.7435690431     0.5312012292
   47      H      -7.9588651622     4.2625745545     1.4047324889
   48      C      -9.6400813112     3.9389915809     0.1489717875
   49      H     -10.2736207319     4.6031002473     0.7232697156
   50      C      -9.2702681079     2.4468861061    -1.6631002239
   51      C     -10.1581039596     3.2770123423    -0.9900902167
   52      C      -9.6040871647     1.7099829233    -2.8211852547
   53      C     -10.8800960869     1.8023758629    -3.3261232979
   54      H     -11.1852489110     1.2565600869    -4.2099219630
   55      C     -11.7990962553     2.6352538610    -2.6589810939
   56      H     -12.8054381711     2.7124761112    -3.0490885525
   57      C     -11.4653384412     3.3541192300    -1.5307242119
   58      H     -12.2096781703     3.9811593311    -1.0563198358
   59      C      -8.4141258901     0.9923303446    -3.2023651071
   60      C      -8.1644789723     0.1360088409    -4.2483295061
   61      H      -8.9451991281    -0.0986593822    -4.9638943317
   62      C      -6.8993959012    -0.4405992553    -4.4022729802
   63      B      -6.6336052154    -1.3926135587    -5.5755630624
   64      C      -5.2303288176    -1.9855630053    -5.7438636617
   65      C      -4.9586340613    -2.8463259386    -6.8176128958
   66      H      -5.7502550227    -3.0964787396    -7.5154448876
   67      C      -3.6996674244    -3.3673414235    -6.9855818569
   68      C      -2.6402723476    -3.0300823333    -6.0549000176
   69      C      -2.8924674609    -2.1972812005    -4.9927080638
   70      H      -2.1019265826    -1.9532092568    -4.2928497418
   71      C      -4.1751700796    -1.6613396160    -4.8003463085
   72      C      -3.1495647377    -4.2658337705    -7.9822497068
   73      C      -3.6438222092    -4.9183559346    -9.0877375839
   74      H      -4.6756712318    -4.8159127081    -9.3989142161
   75      C      -2.7710701988    -5.7420629474    -9.8289280120
   76      H      -3.1592374161    -6.2565557589   -10.6983763252
   77      C      -1.4481316835    -5.9149425153    -9.4874343568
   78      H      -0.8173945386    -6.5591263177   -10.0877756256
   79      C      -1.7926299327    -4.4481829242    -7.6399925281
   80      C      -0.9121347669    -5.2550970599    -8.3551354477
   81      C      -1.4391324900    -3.7208646626    -6.4833284253
   82      C      -0.1456091448    -3.8051677203    -6.0255400753
   83      H       0.1835207326    -3.2736799990    -5.1421995048
   84      C       0.7673799068    -4.6142412490    -6.7339453578
   85      H       1.7855248255    -4.6820266495    -6.3740732972
   86      C       0.4122494688    -5.3212641274    -7.8611681763
   87      H       1.1487302252    -5.9311078589    -8.3699356261
   88      C      -7.7742574922    -1.7690299942    -6.5973034171
   89      C      -7.8956572724    -1.0823267799    -7.8127067057
   90      C      -8.8783102543    -1.4472177032    -8.7246031074
   91      H      -8.9535664230    -0.9379339960    -9.6787757399
   92      C      -9.7584719574    -2.4775259634    -8.4317069168
   93      C      -9.6517592779    -3.1561782479    -7.2277609883
   94      H     -10.3523780485    -3.9525543106    -7.0049980754
   95      C      -8.6588637252    -2.8188489436    -6.3158947466
   96      N     -10.7438795079    -2.8525087404    -9.3675683943
   97      C     -10.8361379258    -4.0929600635    -9.9683818770
   98      C     -11.6943199621    -2.0195110151    -9.9255289507
   99      C     -11.9732657883    -0.6846983387    -9.6579060070
  100      H     -11.4176749849    -0.1297044404    -8.9142436308
  101      C     -12.9870984690    -0.0831127106   -10.3823960738
  102      H     -13.2206804984     0.9569211401   -10.1956504714
  103      C     -10.0533868882    -5.2279097024    -9.7881747963
  104      H      -9.2417280040    -5.2482615138    -9.0735377297
  105      C     -10.3383460741    -6.3361089011   -10.5662467572
  106      H      -9.7415452007    -7.2307319957   -10.4449585416
  107      C     -11.3709579395    -6.3255022770   -11.5076917161
  108      H     -11.5639768292    -7.2099306733   -12.1000281650
  109      C     -12.1383508157    -5.1911124698   -11.6895430827
  110      H     -12.9301871583    -5.1764454870   -12.4284322368
  111      C     -11.8707224385    -4.0644748005   -10.9183388017
  112      C     -13.7135944266    -0.7836372684   -11.3491017879
  113      H     -14.4964793093    -0.2787934871   -11.8991117238
  114      C     -13.4363773943    -2.1126795329   -11.6048152220
  115      H     -13.9975827424    -2.6579441641   -12.3536908157
  116      C     -12.4217380878    -2.7383753626   -10.8889363289
  117      C      -8.5377104031    -3.5880944422    -5.0311181992
  118      H      -9.3054888308    -4.3570079071    -4.9492938108
  119      H      -8.6300336690    -2.9355266130    -4.1612529500
  120      H      -7.5672321537    -4.0831382886    -4.9551388431
  121      C      -6.9395158728     0.0254503618    -8.1562649162
  122      H      -7.2335341004     0.5426406960    -9.0691808264
  123      H      -6.8811867330     0.7684104216    -7.3590179771
  124      H      -5.9279819498    -0.3575222197    -8.3074076083
 ----------------------------------------------------------------

   15   -2925.5253875414      6.81e-09  Convergence criterion met
 Total energy in the final basis set =    -2925.5253875414

         TDDFT/TDA Excitation Energies
 ---------------------------------------------------

 Excited state   1: excitation energy (eV) =    1.9706
 Total energy for state  1:                 -2925.45296781 au
    Multiplicity: Triplet
    Trans. Mom.:  0.0000 X   0.0000 Y   0.0000 Z
    Strength   :     0.0000000000
    D(245) --> V(  2) amplitude =  0.2459
    D(248) --> V(  1) amplitude =  0.9284

 Excited state   2: excitation energy (eV) =    2.3525
 Total energy for state  2:                 -2925.43893465 au
    Multiplicity: Triplet
    Trans. Mom.:  0.0000 X   0.0000 Y   0.0000 Z
    Strength   :     0.0000000000
    D(246) --> V(  2) amplitude =  0.4705
    D(247) --> V(  1) amplitude =  0.8038

 Excited state   3: excitation energy (eV) =    2.4225
 Total energy for state  3:                 -2925.43636048 au
    Multiplicity: Triplet
    Trans. Mom.:  0.0000 X   0.0000 Y   0.0000 Z
    Strength   :     0.0000000000
    D(246) --> V(  1) amplitude =  0.7343
    D(246) --> V(  4) amplitude = -0.2267
    D(247) --> V(  2) amplitude =  0.5472

 Excited state   4: excitation energy (eV) =    2.4948
 Total energy for state  4:                 -2925.43370443 au
    Multiplicity: Triplet
    Trans. Mom.:  0.0000 X   0.0000 Y   0.0000 Z
    Strength   :     0.0000000000
    D(245) --> V(  1) amplitude = -0.7221
    D(248) --> V(  2) amplitude = -0.5685

 Excited state   5: excitation energy (eV) =    2.6452
 Total energy for state  5:                 -2925.42817862 au
    Multiplicity: Singlet
    Trans. Mom.:  0.0500 X  -0.0220 Y  -0.0095 Z
    Strength   :     0.0001990325
    D(248) --> V(  1) amplitude =  0.9688

 Excited state   6: excitation energy (eV) =    2.7459
 Total energy for state  6:                 -2925.42447819 au
    Multiplicity: Triplet
    Trans. Mom.:  0.0000 X   0.0000 Y   0.0000 Z
    Strength   :     0.0000000000
    D(242) --> V(  1) amplitude = -0.2786
    D(251) --> V(  1) amplitude = -0.4264
    D(252) --> V(  1) amplitude =  0.8419

 Excited state   7: excitation energy (eV) =    2.7661
 Total energy for state  7:                 -2925.42373471 au
    Multiplicity: Singlet
    Trans. Mom.: -0.1737 X   0.0037 Y  -0.1000 Z
    Strength   :     0.0027243757
    D(242) --> V(  1) amplitude = -0.2363
    D(251) --> V(  1) amplitude = -0.3690
    D(252) --> V(  1) amplitude =  0.8865

 Excited state   8: excitation energy (eV) =    2.7850
 Total energy for state  8:                 -2925.42304027 au
    Multiplicity: Triplet
    Trans. Mom.:  0.0000 X   0.0000 Y   0.0000 Z
    Strength   :     0.0000000000
    D(241) --> V(  1) amplitude = -0.2236
    D(251) --> V(  1) amplitude =  0.8578
    D(252) --> V(  1) amplitude =  0.4439

 Excited state   9: excitation energy (eV) =    2.7942
 Total energy for state  9:                 -2925.42270382 au
    Multiplicity: Singlet
    Trans. Mom.:  0.0387 X   0.0243 Y   0.0453 Z
    Strength   :     0.0002834782
    D(251) --> V(  1) amplitude =  0.8936
    D(252) --> V(  1) amplitude =  0.3784

 Excited state  10: excitation energy (eV) =    3.1384
 Total energy for state 10:                 -2925.41005234 au
    Multiplicity: Singlet
    Trans. Mom.: -2.2505 X   2.0630 Y   1.7724 Z
    Strength   :     0.9582048274
    D(247) --> V(  1) amplitude =  0.9496

 Excited state  11: excitation energy (eV) =    3.3614
 Total energy for state 11:                 -2925.40185983 au
    Multiplicity: Singlet
    Trans. Mom.:  0.0099 X  -0.0096 Y   0.0016 Z
    Strength   :     0.0000158195
    D(250) --> V(  1) amplitude =  0.9989

 Excited state  12: excitation energy (eV) =    3.3729
 Total energy for state 12:                 -2925.40143486 au
    Multiplicity: Singlet
    Trans. Mom.: -0.0053 X   0.0046 Y   0.0159 Z
    Strength   :     0.0000248362
    D(249) --> V(  1) amplitude =  0.9986

 ---------------------------------------------------

                    Orbital Energies (a.u.)
 --------------------------------------------------------------

 Alpha MOs
 -- Occupied --
-14.689 -14.688 -10.493 -10.492 -10.484 -10.484 -10.483 -10.483
-10.471 -10.471 -10.471 -10.470 -10.470 -10.470 -10.470 -10.469
-10.469 -10.469 -10.469 -10.468 -10.467 -10.467 -10.467 -10.465
-10.465 -10.465 -10.465 -10.465 -10.464 -10.464 -10.463 -10.463
-10.463 -10.462 -10.461 -10.459 -10.459 -10.459 -10.452 -10.452
-10.448 -10.448 -10.448 -10.447 -10.446 -10.446 -10.446 -10.446
-10.446 -10.445 -10.445 -10.445 -10.445 -10.445 -10.444 -10.444
-10.444 -10.444 -10.444 -10.444 -10.443 -10.442 -10.442 -10.441
-10.437 -10.437 -10.437 -10.437 -10.435 -10.435 -10.435 -10.434
-10.433 -10.432  -6.951  -6.951  -1.108  -1.108  -1.020  -1.019
 -0.977  -0.977  -0.964  -0.961  -0.949  -0.948  -0.946  -0.945
 -0.940  -0.938  -0.911  -0.902  -0.888  -0.886  -0.882  -0.882
 -0.866  -0.863  -0.854  -0.853  -0.852  -0.852  -0.844  -0.844
 -0.823  -0.820  -0.818  -0.809  -0.808  -0.808  -0.807  -0.804
 -0.777  -0.777  -0.773  -0.773  -0.740  -0.739  -0.735  -0.730
 -0.729  -0.724  -0.699  -0.696  -0.693  -0.686  -0.686  -0.683
 -0.681  -0.673  -0.656  -0.656  -0.652  -0.649  -0.648  -0.648
 -0.643  -0.643  -0.605  -0.600  -0.599  -0.595  -0.594  -0.594
 -0.589  -0.587  -0.586  -0.582  -0.581  -0.573  -0.573  -0.557
 -0.557  -0.552  -0.548  -0.547  -0.533  -0.532  -0.527  -0.522
 -0.519  -0.518  -0.518  -0.516  -0.508  -0.507  -0.501  -0.500
 -0.500  -0.499  -0.498  -0.498  -0.492  -0.490  -0.489  -0.489
 -0.488  -0.487  -0.485  -0.485  -0.485  -0.483  -0.480  -0.479
 -0.478  -0.476  -0.474  -0.473  -0.473  -0.471  -0.468  -0.468
 -0.467  -0.462  -0.449  -0.446  -0.446  -0.444  -0.441  -0.434
 -0.434  -0.429  -0.426  -0.423  -0.423  -0.423  -0.421  -0.414
 -0.411  -0.411  -0.409  -0.408  -0.404  -0.401  -0.400  -0.400
 -0.399  -0.399  -0.398  -0.395  -0.393  -0.392  -0.390  -0.389
 -0.383  -0.376  -0.374  -0.371  -0.370  -0.356  -0.353  -0.346
 -0.329  -0.327  -0.326  -0.322  -0.301  -0.300  -0.296  -0.296
 -0.289  -0.286  -0.286  -0.286  -0.282  -0.268  -0.260  -0.254
 -0.251  -0.250  -0.236  -0.235

          Ground-State Mulliken Net Atomic Charges

     Atom                 Charge (a.u.)
  ----------------------------------------
      1 N                    -0.737951
      2 C                     0.343360
      3 C                     0.334939
      4 C                    -0.282202
      5 H                     0.237098
      6 C                    -0.236466
      7 H                     0.216708
      8 C                    -0.281007
      9 H                     0.234679
     10 C                    -0.235882
     11 H                     0.215748
     12 C                    -0.227286
     13 H                     0.214636
     14 C                    -0.346734
     15 H                     0.205388
     16 C                     0.103663
     17 C                    -0.228803
     18 H                     0.214747
     19 C                    -0.344381
     20 H                     0.205741
     21 C                     0.091116
     22 C                     0.319637
     23 C                    -0.355929
     24 H                     0.236881
     25 C                    -0.347887
     26 H                     0.238613
     27 C                     0.050048
     28 C                     0.049508
     29 C                    -0.212692
     30 C                    -0.761067
     31 H                     0.241001
     32 H                     0.246242
     33 H                     0.250256
     34 C                    -0.758718
     35 H                     0.240210
     36 H                     0.248336
     37 H                     0.245826
     38 B                     0.688880
     39 C                    -0.153364
     40 C                    -0.389060
     41 H                     0.229807
     42 C                     0.096932
     43 C                     0.201625
     44 C                    -0.374711
     45 H                     0.222016
     46 C                    -0.204701
     47 H                     0.229645
     48 C                    -0.333560
     49 H                     0.223215
     50 C                    -0.070565
     51 C                     0.252263
     52 C                     0.199895
     53 C                    -0.368574
     54 H                     0.222342
     55 C                    -0.206277
     56 H                     0.229937
     57 C                    -0.331334
     58 H                     0.223051
     59 C                     0.085077
     60 C                    -0.381944
     61 H                     0.231542
     62 C                    -0.152731
     63 B                     0.689639
     64 C                    -0.153558
     65 C                    -0.384555
     66 H                     0.232804
     67 C                     0.086548
     68 C                     0.094707
     69 C                    -0.383422
     70 H                     0.233601
     71 C                    -0.152632
     72 C                     0.202895
     73 C                    -0.374283
     74 H                     0.222328
     75 C                    -0.205518
     76 H                     0.229918
     77 C                    -0.330603
     78 H                     0.222851
     79 C                    -0.068904
     80 C                     0.248236
     81 C                     0.203187
     82 C                    -0.375402
     83 H                     0.222791
     84 C                    -0.205307
     85 H                     0.229978
     86 C                    -0.331748
     87 H                     0.222898
     88 C                    -0.213520
     89 C                     0.049535
     90 C                    -0.348646
     91 H                     0.237616
     92 C                     0.324390
     93 C                    -0.357023
     94 H                     0.236813
     95 C                     0.048234
     96 N                    -0.742017
     97 C                     0.338427
     98 C                     0.345270
     99 C                    -0.281544
    100 H                     0.234781
    101 C                    -0.235342
    102 H                     0.216354
    103 C                    -0.281123
    104 H                     0.234893
    105 C                    -0.234823
    106 H                     0.216190
    107 C                    -0.228544
    108 H                     0.214822
    109 C                    -0.341826
    110 H                     0.205243
    111 C                     0.096723
    112 C                    -0.229086
    113 H                     0.214931
    114 C                    -0.340501
    115 H                     0.205456
    116 C                     0.087298
    117 C                    -0.759891
    118 H                     0.240672
    119 H                     0.249544
    120 H                     0.245543
    121 C                    -0.757223
    122 H                     0.240145
    123 H                     0.246372
    124 H                     0.248625
  ----------------------------------------
  Sum of atomic charges =    -0.000000

                    Cartesian Multipole Moments
 -----------------------------------------------------------------
    Charge (ESU x 10^10)
                -0.0000
    Dipole Moment (Debye)
         X      -0.1816      Y       0.3253      Z      -0.0017
       Tot       0.3725
    Quadrupole Moments (Debye-Ang)
        XX    -413.7762     XY     -30.9648     YY    -414.7733
        XZ     -24.4302     YZ      16.9008     ZZ    -419.9605

 Total job time:  13307.67s(wall), 49278.57s(cpu)
        *  Thank you very much for using Q-Chem.  Have a nice day.  *
