 Q-Chem 5.0, Q-Chem, Inc., Pleasanton, CA (2017)
 Q-Chem 5.0.1 for Intel X86 EM64T Linux

User input:
--------------------------------------------------------------
$rem
threads 8
jobtype	opt
method PBEh-3c
basis def2-mSVP
mem_static	1024
mem_total	14000
sym_ignore	true
cis_n_roots             2
cis_singlets            false
cis_triplets		true
rpa                     false
cis_state_deriv         1
$end

$molecule
read incoords.mol
$end

--------------------------------------------------------------

   15   -2925.4703783159      5.59E-09 Convergence criterion met
 Total energy in the final basis set = -2925.47037832
   12   -2925.5101771152      8.73E-09 Convergence criterion met
 Total energy in the final basis set = -2925.51017712
   13   -2925.5218923039      4.96E-09 Convergence criterion met
 Total energy in the final basis set = -2925.52189230
   13   -2925.5216897938      5.41E-09 Convergence criterion met
 Total energy in the final basis set = -2925.52168979
   13   -2925.5230712134      5.24E-09 Convergence criterion met
 Total energy in the final basis set = -2925.52307121
   13   -2925.5234076738      5.09E-09 Convergence criterion met
 Total energy in the final basis set = -2925.52340767
   12   -2925.5235092171      9.99E-09 Convergence criterion met
 Total energy in the final basis set = -2925.52350922
   11   -2925.5239329483      8.25E-09 Convergence criterion met
   11   -2925.5254698103      4.89E-09 Convergence criterion met
 Total energy in the final basis set = -2925.52546981
   10   -2925.5255595994      7.23E-09 Convergence criterion met
 Total energy in the final basis set = -2925.52555960
   10   -2925.5257737515      6.41E-09 Convergence criterion met
 Total energy in the final basis set = -2925.52577375
   10   -2925.5256653742      4.88E-09 Convergence criterion met
 Total energy in the final basis set = -2925.52566537
    9   -2925.5256139915      6.67E-09 Convergence criterion met
 Total energy in the final basis set = -2925.52561399
    8   -2925.5256231047      7.67E-09 Convergence criterion met
 Total energy in the final basis set = -2925.52562310

             Standard Nuclear Orientation (Angstroms)
    I     Atom           X                Y                Z
 ----------------------------------------------------------------
    1      C      -0.1602005468    -1.6349873624     1.1862246270
    2      C      -1.3647730961    -1.4700079214     0.5124962513
    3      C      -2.5644417661    -1.3886643749     1.2288676366
    4      C      -2.5336330966    -1.4786860464     2.6269693332
    5      C      -1.3263013990    -1.6748742465     3.2845329623
    6      C      -0.1418031047    -1.7560624294     2.5669451240
    7      N       1.0723433081    -2.0033837534     3.2365928762
    8      C      -1.3822884175    -1.4065354288    -0.9899633815
    9      C      -3.8132036793    -1.4138477814     3.4131275747
   10      C       1.8598000699    -3.1215797968     3.0544249922
   11      C       2.9141085854    -3.0984450098     3.9827961534
   12      C       2.7383787236    -1.9088520138     4.7736823745
   13      C       1.5882865447    -1.2667332137     4.2823438127
   14      C       3.4295590157    -1.3510823614     5.8424449062
   15      C       2.9669638010    -0.1723538527     6.3970933422
   16      C       1.8274029068     0.4564736145     5.8875562097
   17      C       1.1230449648    -0.0761820666     4.8238969230
   18      C       1.6893713620    -4.1780629537     2.1651943471
   19      C       2.6106968435    -5.2080460440     2.2086119461
   20      C       3.6743671116    -5.1952105252     3.1146360621
   21      C       3.8277043281    -4.1478667511     4.0039163147
   22      C      -5.8528246005     0.0798710290    -0.6205941549
   23      C      -4.5498026630     0.0427392054     0.0342510434
   24      B      -3.9470455841    -1.2977979261     0.4752436823
   25      C      -4.7181440650    -2.5932418858     0.1775507308
   26      C      -6.0257711948    -2.5496503065    -0.4524625681
   27      B      -6.6445920776    -1.2105779158    -0.8684472495
   28      C      -4.1634251743    -3.8347481526     0.5246982385
   29      C      -4.8551062535    -4.9960306336     0.2830099488
   30      C      -6.1685005463    -4.9493546509    -0.3294006154
   31      C      -6.7236224512    -3.7444972147    -0.6827059152
   32      C      -6.3857364772     1.3096516405    -1.0209125377
   33      C      -5.6847680574     2.4725131149    -0.8063219571
   34      C      -4.3809069790     2.4404977823    -0.1617909897
   35      C      -3.8491995859     1.2395822824     0.2475020026
   36      C      -3.4719326255    -7.0591232571     1.0926053431
   37      C      -3.5363320309    -8.4655613405     1.1807548424
   38      C      -4.6225144229    -9.1875078662     0.7384515751
   39      C      -5.7339889706    -8.5234174808     0.1675032718
   40      C      -5.6446402729    -7.1364196923     0.0896254678
   41      C      -4.5369844505    -6.3873210419     0.5410391316
   42      C      -6.9267313817    -9.1019485029    -0.3299456774
   43      C      -7.9188626805    -8.3031089069    -0.8535903056
   44      C      -7.8044908445    -6.8988845261    -0.9215934007
   45      C      -6.6563841264    -6.3102153634    -0.4446262209
   46      C      -2.6479202398     5.8097591138     0.2689370859
   47      C      -2.7578207199     4.4088980243     0.3858439566
   48      C      -3.8962502803     3.8030006487    -0.0899453609
   49      C      -4.8976412970     4.6127123298    -0.6720606358
   50      C      -4.8160754852     5.9939745926    -0.7976290589
   51      C      -3.6326701203     6.5893396210    -0.2985108727
   52      C      -5.9969966845     3.8446913113    -1.1161139793
   53      C      -7.0622846576     4.4836020359    -1.7065825144
   54      C      -7.0040343207     5.8841723262    -1.8419885755
   55      C      -5.9262351720     6.6271272453    -1.4089843542
   56      C     -10.4733808363    -0.9523219187    -1.3405196702
   57      C      -9.2154228219    -0.9641096963    -0.7501513578
   58      C      -8.0737132779    -1.1775902306    -1.5342207402
   59      C      -8.2225914242    -1.3953681141    -2.9104152857
   60      C      -9.4889215290    -1.4045348364    -3.4819323256
   61      C     -10.6118965944    -1.1779937056    -2.7011545955
   62      N     -11.8949904874    -1.2032341503    -3.2846867618
   63      C      -9.0881557872    -0.7511093153     0.7315714300
   64      C      -7.0187538081    -1.6608558511    -3.7704741351
   65      C     -12.8989898298    -2.0929229137    -2.9550682599
   66      C     -13.9915747036    -1.8872158742    -3.8138680732
   67      C     -13.6207149300    -0.8247812720    -4.7064610337
   68      C     -12.3178390985    -0.4356750589    -4.3526729231
   69      C     -14.2683950765    -0.2036831921    -5.7686379009
   70      C     -13.6117577392     0.7962421598    -6.4597008075
   71      C     -12.3188472162     1.1784018273    -6.0917522297
   72      C     -11.6546936819     0.5747140804    -5.0386096167
   73      C     -12.9129193794    -3.1026292220    -1.9992519100
   74      C     -14.0476713845    -3.8895878647    -1.9112841835
   75      C     -15.1458976429    -3.6897620154    -2.7519305520
   76      C     -15.1217176333    -2.6915891194    -3.7068484385
   77      H       0.7698394793    -1.6841208034     0.6320140768
   78      H      -1.3077148617    -1.7927750394     4.3615175546
   79      H      -1.9568421735    -2.2346529281    -1.4117064628
   80      H      -0.3778724351    -1.4568852209    -1.4088163784
   81      H      -1.8466305122    -0.4870086136    -1.3506867411
   82      H      -4.4643571756    -2.2607342418     3.1850080059
   83      H      -4.3804782454    -0.5096996919     3.1839286484
   84      H      -3.6283382292    -1.4236884485     4.4868496810
   85      H       4.3141573545    -1.8353047038     6.2365569746
   86      H       3.4906284540     0.2706640760     7.2333021788
   87      H       1.4864940856     1.3807284351     6.3350600528
   88      H       0.2424582966     0.4159038746     4.4326630697
   89      H       0.8619507815    -4.2025667620     1.4683897475
   90      H       2.5011474159    -6.0427775592     1.5282570872
   91      H       4.3777507957    -6.0170397833     3.1227502853
   92      H       4.6451133670    -4.1515525453     4.7138242808
   93      H      -3.1856993862    -3.8705781609     0.9906331529
   94      H      -7.7048681684    -3.7099494105    -1.1433289176
   95      H      -7.3567912361     1.3352474458    -1.5036382456
   96      H      -2.8828900649     1.2030778353     0.7380382663
   97      H      -2.5966791797    -6.5391798127     1.4596017607
   98      H      -2.6990107366    -8.9953154722     1.6154684965
   99      H      -4.6264414685   -10.2667809076     0.8296153949
  100      H      -7.0616487097   -10.1762007834    -0.2984730770
  101      H      -8.8221668868    -8.7671234955    -1.2278218141
  102      H      -8.6136842058    -6.3162373307    -1.3432167177
  103      H      -1.7525918851     6.2894605150     0.6414384913
  104      H      -1.9571019856     3.8396513051     0.8400941255
  105      H      -3.4980983265     7.6617126541    -0.3628385634
  106      H      -7.9284696601     3.9399343711    -2.0619458831
  107      H      -7.8386507974     6.3946096913    -2.3043082311
  108      H      -5.9310153778     7.7021033584    -1.5381484113
  109      H     -11.3575271491    -0.7654505781    -0.7421310525
  110      H      -9.6083157581    -1.6042171559    -4.5408708224
  111      H     -10.0581773675    -0.5801908355     1.1976753553
  112      H      -8.4554260363     0.1078102930     0.9616660867
  113      H      -8.6370081304    -1.6176738754     1.2196287352
  114      H      -7.2775230006    -1.6867696893    -4.8286396855
  115      H      -6.5583270963    -2.6194247664    -3.5217471656
  116      H      -6.2515650582    -0.8964544089    -3.6359168570
  117      H     -15.2703024845    -0.5021202035    -6.0518289891
  118      H     -14.0979546904     1.2879573176    -7.2916354232
  119      H     -11.8221235879     1.9649922248    -6.6446053244
  120      H     -10.6532417605     0.8791075862    -4.7662663217
  121      H     -12.0660696901    -3.2793556010    -1.3500031651
  122      H     -14.0811319500    -4.6829341812    -1.1759517723
  123      H     -16.0157517414    -4.3257550378    -2.6560231267
  124      H     -15.9664639041    -2.5440919727    -4.3685327544
 ----------------------------------------------------------------

    8   -2925.5256261570      6.65E-09 Convergence criterion met
 Total energy in the final basis set = -2925.52562616

         TDDFT/TDA Excitation Energies
 ---------------------------------------------------

 Excited state   1: excitation energy (eV) =    1.9705
 Total energy for state  1:                 -2925.45321147 au
    Multiplicity: Triplet
    Trans. Mom.:  0.0000 X   0.0000 Y   0.0000 Z
    Strength   :     0.0000000000
    D(245) --> V(  2) amplitude =  0.2463
    D(248) --> V(  1) amplitude = -0.9285

 Excited state   2: excitation energy (eV) =    2.3525
 Total energy for state  2:                 -2925.43917299 au
    Multiplicity: Triplet
    Trans. Mom.:  0.0000 X   0.0000 Y   0.0000 Z
    Strength   :     0.0000000000
    D(246) --> V(  2) amplitude = -0.4700
    D(247) --> V(  1) amplitude = -0.8033

 ---------------------------------------------------

 Final energy is   -2925.45321146944
 **  OPTIMIZATION CONVERGED  **

                    Orbital Energies (a.u.)
 --------------------------------------------------------------

 Alpha MOs
 -- Occupied --
-14.689 -14.688 -10.492 -10.492 -10.484 -10.484 -10.483 -10.483
-10.471 -10.471 -10.471 -10.470 -10.470 -10.470 -10.470 -10.469
-10.469 -10.469 -10.469 -10.468 -10.467 -10.467 -10.467 -10.465
-10.465 -10.465 -10.465 -10.465 -10.464 -10.464 -10.463 -10.463
-10.463 -10.462 -10.461 -10.459 -10.459 -10.459 -10.452 -10.452
-10.448 -10.448 -10.448 -10.447 -10.446 -10.446 -10.446 -10.446
-10.446 -10.445 -10.445 -10.445 -10.445 -10.445 -10.445 -10.444
-10.444 -10.444 -10.444 -10.444 -10.443 -10.442 -10.442 -10.441
-10.437 -10.437 -10.437 -10.437 -10.435 -10.435 -10.435 -10.434
-10.433 -10.432  -6.951  -6.950  -1.108  -1.108  -1.020  -1.019
 -0.977  -0.977  -0.964  -0.961  -0.949  -0.948  -0.946  -0.946
 -0.940  -0.938  -0.911  -0.902  -0.888  -0.886  -0.882  -0.882
 -0.866  -0.863  -0.854  -0.853  -0.852  -0.852  -0.844  -0.844
 -0.823  -0.820  -0.818  -0.809  -0.808  -0.808  -0.807  -0.804
 -0.777  -0.777  -0.773  -0.773  -0.740  -0.739  -0.735  -0.730
 -0.729  -0.724  -0.699  -0.696  -0.693  -0.686  -0.686  -0.683
 -0.681  -0.673  -0.656  -0.656  -0.652  -0.649  -0.648  -0.648
 -0.643  -0.643  -0.605  -0.600  -0.599  -0.595  -0.594  -0.594
 -0.589  -0.587  -0.586  -0.582  -0.581  -0.573  -0.573  -0.557
 -0.557  -0.552  -0.548  -0.547  -0.533  -0.532  -0.527  -0.522
 -0.519  -0.518  -0.518  -0.516  -0.508  -0.507  -0.501  -0.500
 -0.500  -0.499  -0.498  -0.498  -0.492  -0.490  -0.489  -0.489
 -0.488  -0.487  -0.485  -0.485  -0.485  -0.483  -0.480  -0.479
 -0.478  -0.476  -0.474  -0.473  -0.473  -0.471  -0.468  -0.468
 -0.467  -0.462  -0.449  -0.446  -0.446  -0.444  -0.441  -0.434
 -0.434  -0.429  -0.426  -0.423  -0.423  -0.423  -0.421  -0.414
 -0.411  -0.411  -0.409  -0.408  -0.404  -0.401  -0.400  -0.400
 -0.399  -0.399  -0.398  -0.395  -0.393  -0.392  -0.390  -0.389
 -0.383  -0.376  -0.374  -0.371  -0.370  -0.356  -0.353  -0.346
 -0.329  -0.327  -0.326  -0.322  -0.301  -0.300  -0.296  -0.296
 -0.289  -0.286  -0.286  -0.286  -0.282  -0.268  -0.260  -0.254
 -0.251  -0.250  -0.236  -0.235

          Ground-State Mulliken Net Atomic Charges

     Atom                 Charge (a.u.)
  ----------------------------------------
      1 C                    -0.355386
      2 C                     0.048718
      3 C                    -0.212329
      4 C                     0.049564
      5 C                    -0.347235
      6 C                     0.319050
      7 N                    -0.737921
      8 C                    -0.758781
      9 C                    -0.761042
     10 C                     0.334835
     11 C                     0.103667
     12 C                     0.091032
     13 C                     0.342996
     14 C                    -0.344316
     15 C                    -0.228798
     16 C                    -0.236566
     17 C                    -0.282084
     18 C                    -0.280883
     19 C                    -0.236008
     20 C                    -0.227366
     21 C                    -0.346540
     22 C                    -0.152695
     23 C                    -0.153092
     24 B                     0.689290
     25 C                    -0.152657
     26 C                    -0.152732
     27 B                     0.688378
     28 C                    -0.383515
     29 C                     0.094567
     30 C                     0.086583
     31 C                    -0.384726
     32 C                    -0.381936
     33 C                     0.085060
     34 C                     0.096959
     35 C                    -0.389188
     36 C                    -0.375404
     37 C                    -0.205287
     38 C                    -0.331754
     39 C                     0.248338
     40 C                    -0.069043
     41 C                     0.203193
     42 C                    -0.330708
     43 C                    -0.205499
     44 C                    -0.374149
     45 C                     0.202929
     46 C                    -0.204672
     47 C                    -0.374586
     48 C                     0.201601
     49 C                    -0.070669
     50 C                     0.252330
     51 C                    -0.333648
     52 C                     0.199901
     53 C                    -0.368662
     54 C                    -0.206240
     55 C                    -0.331369
     56 C                    -0.357623
     57 C                     0.048814
     58 C                    -0.213867
     59 C                     0.050459
     60 C                    -0.349035
     61 C                     0.324921
     62 N                    -0.742095
     63 C                    -0.759944
     64 C                    -0.757213
     65 C                     0.338717
     66 C                     0.096368
     67 C                     0.087408
     68 C                     0.345320
     69 C                    -0.340656
     70 C                    -0.229045
     71 C                    -0.235321
     72 C                    -0.281683
     73 C                    -0.281149
     74 C                    -0.234879
     75 C                    -0.228523
     76 C                    -0.341630
     77 H                     0.236881
     78 H                     0.238610
     79 H                     0.245890
     80 H                     0.240188
     81 H                     0.248381
     82 H                     0.250303
     83 H                     0.246226
     84 H                     0.240996
     85 H                     0.205800
     86 H                     0.214718
     87 H                     0.216722
     88 H                     0.237235
     89 H                     0.234677
     90 H                     0.215831
     91 H                     0.214648
     92 H                     0.205448
     93 H                     0.233570
     94 H                     0.232803
     95 H                     0.231513
     96 H                     0.229771
     97 H                     0.222758
     98 H                     0.229980
     99 H                     0.222885
    100 H                     0.222881
    101 H                     0.229899
    102 H                     0.222367
    103 H                     0.229632
    104 H                     0.222043
    105 H                     0.223246
    106 H                     0.222305
    107 H                     0.229928
    108 H                     0.223055
    109 H                     0.236790
    110 H                     0.237603
    111 H                     0.240667
    112 H                     0.249522
    113 H                     0.245549
    114 H                     0.240145
    115 H                     0.248599
    116 H                     0.246324
    117 H                     0.205455
    118 H                     0.214946
    119 H                     0.216393
    120 H                     0.234784
    121 H                     0.234896
    122 H                     0.216197
    123 H                     0.214829
    124 H                     0.205262
  ----------------------------------------
  Sum of atomic charges =    -0.000000

                    Cartesian Multipole Moments
 -----------------------------------------------------------------
    Charge (ESU x 10^10)
                -0.0000
    Dipole Moment (Debye)
         X       0.0543      Y       0.2873      Z      -0.2306
       Tot       0.3724
    Quadrupole Moments (Debye-Ang)
        XX    -446.8062     XY       4.2596     YY    -368.8700
        XZ      -0.3090     YZ      -4.3137     ZZ    -435.3649

 Total job time:  78634.63s(wall), 510886.31s(cpu)
        *  Thank you very much for using Q-Chem.  Have a nice day.  *
