 Q-Chem 5.0, Q-Chem, Inc., Pleasanton, CA (2017)
 Q-Chem 5.0.1 for Intel X86 EM64T Linux

User input:
--------------------------------------------------------------
$rem
threads 8
jobtype	opt
method PBEh-3c
basis def2-mSVP
mem_static	1024
mem_total	14000
sym_ignore	true
cis_n_roots             4
cis_singlets            false
cis_triplets		true
rpa                     false
cis_state_deriv         3
state_follow		true
$end

$molecule
read incoords.mol
$end

--------------------------------------------------------------

   15   -2925.4703783159      5.59E-09 Convergence criterion met
 Total energy in the final basis set = -2925.47037832
   12   -2925.5105737937      7.63E-09 Convergence criterion met
 Total energy in the final basis set = -2925.51057379
   13   -2925.5223641358      4.51E-09 Convergence criterion met
 Total energy in the final basis set = -2925.52236414
   13   -2925.5248867150      4.75E-09 Convergence criterion met
 Total energy in the final basis set = -2925.52488672
   13   -2925.5256494339      4.88E-09 Convergence criterion met
 Total energy in the final basis set = -2925.52564943
   13   -2925.5256045901      5.10E-09 Convergence criterion met
 Total energy in the final basis set = -2925.52560459
   12   -2925.5253808364      9.49E-09 Convergence criterion met
 Total energy in the final basis set = -2925.52538084
   11   -2925.5256867282      5.40E-09 Convergence criterion met
   10   -2925.5255868611      5.59E-09 Convergence criterion met
 Total energy in the final basis set = -2925.52558686
   10   -2925.5256134773      4.96E-09 Convergence criterion met
 Total energy in the final basis set = -2925.52561348
   10   -2925.5256257482      4.82E-09 Convergence criterion met
 Total energy in the final basis set = -2925.52562575
    9   -2925.5255941288      6.41E-09 Convergence criterion met
 Total energy in the final basis set = -2925.52559413
    9   -2925.5256039056      5.26E-09 Convergence criterion met
 Total energy in the final basis set = -2925.52560391
    9   -2925.5256102681      5.27E-09 Convergence criterion met
 Total energy in the final basis set = -2925.52561027

             Standard Nuclear Orientation (Angstroms)
    I     Atom           X                Y                Z
 ----------------------------------------------------------------
    1      C      -0.1595754846    -1.6314890725     1.1862769910
    2      C      -1.3640602396    -1.4674689537     0.5121248294
    3      C      -2.5640015386    -1.3869476003     1.2280735956
    4      C      -2.5336073218    -1.4767846602     2.6262261494
    5      C      -1.3263619672    -1.6721305470     3.2842021884
    6      C      -0.1415509956    -1.7525228182     2.5670053082
    7      N       1.0725305612    -1.9993842459     3.2369579864
    8      C      -1.3811185907    -1.4044765057    -0.9903601083
    9      C      -3.8133643913    -1.4121982088     3.4121301198
   10      C       1.8605881244    -3.1171122338     3.0544827851
   11      C       2.9140836293    -3.0944208357     3.9837822205
   12      C       2.7370986060    -1.9056698695     4.7756824957
   13      C       1.5872177854    -1.2635313432     4.2839020666
   14      C       3.4272346625    -1.3485002779     5.8454268193
   15      C       2.9636299440    -0.1705128209     6.4008159064
   16      C       1.8241751435     0.4582361997     5.8909727484
   17      C       1.1209792112    -0.0737154851     4.8261965627
   18      C       1.6912851746    -4.1728760521     2.1641905487
   19      C       2.6128565533    -5.2026190627     2.2075484418
   20      C       3.6756505254    -5.1902965262     3.1146046527
   21      C       3.8278457201    -4.1436956729     4.0049571597
   22      C      -5.8520880918     0.0784029012    -0.6243718308
   23      C      -4.5495077366     0.0425300382     0.0312104495
   24      B      -3.9465363463    -1.2972840094     0.4741632887
   25      C      -4.7170277667    -2.5933500877     0.1775016091
   26      C      -6.0249407604    -2.5507808070    -0.4517722867
   27      B      -6.6440370371    -1.2124976226    -0.8696201148
   28      C      -4.1614201448    -3.8345539316     0.5252400169
   29      C      -4.8527701631    -4.9962334396     0.2849945879
   30      C      -6.1668793367    -4.9505251522    -0.3263608369
   31      C      -6.7227093108    -3.7461592056    -0.6802823078
   32      C      -6.3847224432     1.3075489980    -1.0275863932
   33      C      -5.6840661352     2.4707637257    -0.8144974946
   34      C      -4.3807284739     2.4400375358    -0.1686846154
   35      C      -3.8491624925     1.2399562607     0.2430491540
   36      C      -3.4681658941    -7.0584630630     1.0945845632
   37      C      -3.5318806496    -8.4649094132     1.1834837691
   38      C      -4.6181215879    -9.1874637205     0.7424089190
   39      C      -5.7302616907    -8.5241138913     0.1721425658
   40      C      -5.6416019928    -7.1371064433     0.0935455931
   41      C      -4.5339199866    -6.3873863568     0.5435868200
   42      C      -6.9230952525    -9.1034114083    -0.3240155270
   43      C      -7.9160714137    -8.3053841754    -0.8472319225
   44      C      -7.8024220064    -6.9011447934    -0.9160233287
   45      C      -6.6542139045    -6.3116623831    -0.4403158550
   46      C      -2.6490017565     5.8105017375     0.2583598471
   47      C      -2.7586672516     4.4097910303     0.3772578210
   48      C      -3.8964531702     3.8028754894    -0.0985862266
   49      C      -4.8975030119     4.6113645608    -0.6828722755
   50      C      -4.8162023711     5.9924951527    -0.8103741769
   51      C      -3.6334735728     6.5889206809    -0.3111086911
   52      C      -5.9962446815     3.8425086706    -1.1267652592
   53      C      -7.0610983281     4.4802867623    -1.7190248111
   54      C      -7.0031214449     5.8807245217    -1.8564188073
   55      C      -5.9259101403     6.6244857862    -1.4235547543
   56      C     -10.4729404857    -0.9511716764    -1.3382516327
   57      C      -9.2143205818    -0.9629591133    -0.7492593475
   58      C      -8.0737883587    -1.1801711486    -1.5340440433
   59      C      -8.2245202052    -1.4016738552    -2.9094403492
   60      C      -9.4915056764    -1.4107577020    -3.4794952309
   61      C     -10.6132876860    -1.1804427536    -2.6980849095
   62      N     -11.8969862710    -1.2050297922    -3.2803263726
   63      C      -9.0851691591    -0.7455768149     0.7316661794
   64      C      -7.0219898163    -1.6709818279    -3.7701374224
   65      C     -12.9019227925    -2.0927671823    -2.9483416186
   66      C     -13.9946565196    -1.8874889923    -3.8070733685
   67      C     -13.6229039251    -0.8273642204    -4.7020783054
   68      C     -12.3193844237    -0.4391646775    -4.3496938102
   69      C     -14.2706061106    -0.2071068842    -5.7647260173
   70      C     -13.6131793616     0.7908705847    -6.4578755319
   71      C     -12.3195260030     1.1719667523    -6.0914782488
   72      C     -11.6554213124     0.5692213629    -5.0377621618
   73      C     -12.9167884271    -3.1002812014    -1.9902683075
   74      C     -14.0525261661    -3.8855777882    -1.9001206544
   75      C     -15.1508167355    -3.6862541600    -2.7407866691
   76      C     -15.1257395426    -2.6902177544    -3.6979240642
   77      H       0.7706782654    -1.6800757664     0.6323774846
   78      H      -1.3080819062    -1.7900048227     4.3611965079
   79      H      -1.9538212300    -2.2338938812    -1.4120527786
   80      H      -0.3764298392    -1.4529463964    -1.4087765063
   81      H      -1.8471322444    -0.4860214114    -1.3516142468
   82      H      -4.4651107865    -2.2582850016     3.1828389592
   83      H      -4.3799222000    -0.5072993943     3.1840807866
   84      H      -3.6287093418    -1.4236212311     4.4858703687
   85      H       4.3117778748    -1.8326232109     6.2397790955
   86      H       3.4864548679     0.2719809989     7.2378254666
   87      H       1.4824209267     1.3818703269     6.3391127696
   88      H       0.2404907407     0.4183482964     4.4346971588
   89      H       0.8645190250    -4.1970033173     1.4665874939
   90      H       2.5041962707    -6.0367625691     1.5263303723
   91      H       4.3792253465    -6.0119612828     3.1227409993
   92      H       4.6445915208    -4.1478028166     4.7156271246
   93      H      -3.1833368583    -3.8695048768     0.9905009814
   94      H      -7.7043243014    -3.7123485889    -1.1401893220
   95      H      -7.3553117145     1.3321759695    -1.5113134865
   96      H      -2.8831577192     1.2043935628     0.7342949067
   97      H      -2.5928273255    -6.5379804654     1.4606205075
   98      H      -2.6939750649    -8.9941159880     1.6177637433
   99      H      -4.6216106668   -10.2666895168     0.8340263031
  100      H      -7.0573903749   -10.1777076323    -0.2918760175
  101      H      -8.8194580698    -8.7700467060    -1.2204697800
  102      H      -8.6122584910    -6.3190887830    -1.3372479800
  103      H      -1.7541080740     6.2909682083     0.6309324636
  104      H      -1.9582089784     3.8414432600     0.8330748161
  105      H      -3.4992272580     7.6612343353    -0.3769597511
  106      H      -7.9268623262     3.9359086465    -2.0743480746
  107      H      -7.8375109961     6.3902501262    -2.3201807785
  108      H      -5.9307315072     7.6992663436    -1.5542150150
  109      H     -11.3561507833    -0.7614523049    -0.7393765873
  110      H      -9.6123652174    -1.6130793620    -4.5377712460
  111      H     -10.0548330364    -0.5753424443     1.1987313772
  112      H      -8.4539268658     0.1153521424     0.9582834278
  113      H      -8.6314548271    -1.6097332141     1.2215768130
  114      H      -7.2820569889    -1.6995434179    -4.8279027629
  115      H      -6.5623678868    -2.6293758825    -3.5192812696
  116      H      -6.2537610409    -0.9070844389    -3.6386639006
  117      H     -15.2730732620    -0.5047471204    -6.0467619407
  118      H     -14.0993727557     1.2819112493    -7.2902147956
  119      H     -11.8221656838     1.9569829023    -6.6459977291
  120      H     -10.6534043956     0.8728160906    -4.7666148669
  121      H     -12.0699077956    -3.2766910035    -1.3409728321
  122      H     -14.0866962997    -4.6772147195    -1.1629798383
  123      H     -16.0214214014    -4.3209591138    -2.6431670620
  124      H     -15.9705285283    -2.5431342881    -4.3596504294
 ----------------------------------------------------------------

    7   -2925.5256165189      9.83E-09 Convergence criterion met
 Total energy in the final basis set = -2925.52561652

         TDDFT/TDA Excitation Energies
 ---------------------------------------------------

 Excited state   1: excitation energy (eV) =    1.9705
 Total energy for state  1:                 -2925.45320284 au
    Multiplicity: Triplet
    Trans. Mom.:  0.0000 X   0.0000 Y   0.0000 Z
    Strength   :     0.0000000000
    D(245) --> V(  2) amplitude = -0.2455
    D(248) --> V(  1) amplitude =  0.9285

 Excited state   2: excitation energy (eV) =    2.3527
 Total energy for state  2:                 -2925.43915582 au
    Multiplicity: Triplet
    Trans. Mom.:  0.0000 X   0.0000 Y   0.0000 Z
    Strength   :     0.0000000000
    D(246) --> V(  2) amplitude = -0.4705
    D(247) --> V(  1) amplitude = -0.8043

 Excited state   3: excitation energy (eV) =    2.4226
 Total energy for state  3:                 -2925.43658619 au
    Multiplicity: Triplet
    Trans. Mom.:  0.0000 X   0.0000 Y   0.0000 Z
    Strength   :     0.0000000000
    D(246) --> V(  1) amplitude = -0.7344
    D(246) --> V(  4) amplitude =  0.2271
    D(247) --> V(  2) amplitude = -0.5470

 Excited state   4: excitation energy (eV) =    2.4953
 Total energy for state  4:                 -2925.43391618 au
    Multiplicity: Triplet
    Trans. Mom.:  0.0000 X   0.0000 Y   0.0000 Z
    Strength   :     0.0000000000
    D(245) --> V(  1) amplitude =  0.7218
    D(248) --> V(  2) amplitude = -0.5677

 ---------------------------------------------------

 Final energy is   -2925.45320283552
 **  OPTIMIZATION CONVERGED  **

                    Orbital Energies (a.u.)
 --------------------------------------------------------------

 Alpha MOs
 -- Occupied --
-14.689 -14.688 -10.492 -10.492 -10.484 -10.484 -10.483 -10.483
-10.471 -10.471 -10.471 -10.470 -10.470 -10.470 -10.470 -10.469
-10.469 -10.469 -10.469 -10.468 -10.467 -10.467 -10.467 -10.465
-10.465 -10.465 -10.465 -10.465 -10.464 -10.464 -10.463 -10.463
-10.463 -10.462 -10.461 -10.459 -10.459 -10.459 -10.452 -10.452
-10.448 -10.448 -10.448 -10.447 -10.446 -10.446 -10.446 -10.446
-10.446 -10.445 -10.445 -10.445 -10.445 -10.445 -10.445 -10.444
-10.444 -10.444 -10.444 -10.444 -10.443 -10.442 -10.442 -10.441
-10.437 -10.437 -10.437 -10.437 -10.435 -10.435 -10.435 -10.434
-10.433 -10.432  -6.951  -6.951  -1.108  -1.108  -1.020  -1.019
 -0.977  -0.977  -0.964  -0.961  -0.949  -0.948  -0.946  -0.946
 -0.940  -0.938  -0.911  -0.902  -0.888  -0.886  -0.882  -0.882
 -0.866  -0.863  -0.854  -0.853  -0.852  -0.852  -0.844  -0.844
 -0.823  -0.820  -0.818  -0.809  -0.808  -0.808  -0.807  -0.804
 -0.777  -0.777  -0.773  -0.773  -0.740  -0.739  -0.735  -0.730
 -0.729  -0.724  -0.699  -0.696  -0.693  -0.686  -0.686  -0.683
 -0.681  -0.673  -0.656  -0.656  -0.652  -0.649  -0.648  -0.648
 -0.643  -0.643  -0.605  -0.600  -0.599  -0.595  -0.594  -0.594
 -0.589  -0.587  -0.586  -0.582  -0.581  -0.573  -0.573  -0.557
 -0.557  -0.552  -0.548  -0.547  -0.533  -0.532  -0.527  -0.522
 -0.519  -0.518  -0.518  -0.516  -0.508  -0.507  -0.502  -0.500
 -0.500  -0.499  -0.498  -0.498  -0.492  -0.490  -0.489  -0.489
 -0.488  -0.487  -0.485  -0.485  -0.485  -0.483  -0.480  -0.479
 -0.478  -0.476  -0.474  -0.473  -0.473  -0.471  -0.468  -0.468
 -0.467  -0.462  -0.449  -0.446  -0.446  -0.444  -0.441  -0.434
 -0.434  -0.429  -0.426  -0.423  -0.423  -0.423  -0.421  -0.414
 -0.411  -0.411  -0.409  -0.408  -0.404  -0.401  -0.400  -0.400
 -0.399  -0.399  -0.398  -0.395  -0.393  -0.392  -0.390  -0.389
 -0.383  -0.376  -0.374  -0.371  -0.370  -0.356  -0.353  -0.346
 -0.329  -0.327  -0.326  -0.322  -0.301  -0.300  -0.296  -0.296
 -0.289  -0.286  -0.286  -0.286  -0.282  -0.268  -0.260  -0.254
 -0.251  -0.250  -0.236  -0.235

          Ground-State Mulliken Net Atomic Charges

     Atom                 Charge (a.u.)
  ----------------------------------------
      1 C                    -0.355475
      2 C                     0.048650
      3 C                    -0.212325
      4 C                     0.049597
      5 C                    -0.347282
      6 C                     0.319171
      7 N                    -0.737922
      8 C                    -0.758754
      9 C                    -0.761051
     10 C                     0.334777
     11 C                     0.103715
     12 C                     0.090952
     13 C                     0.343030
     14 C                    -0.344305
     15 C                    -0.228798
     16 C                    -0.236566
     17 C                    -0.282106
     18 C                    -0.280898
     19 C                    -0.236007
     20 C                    -0.227364
     21 C                    -0.346544
     22 C                    -0.152749
     23 C                    -0.153145
     24 B                     0.689267
     25 C                    -0.152704
     26 C                    -0.152701
     27 B                     0.688304
     28 C                    -0.383557
     29 C                     0.094623
     30 C                     0.086499
     31 C                    -0.384772
     32 C                    -0.381998
     33 C                     0.085084
     34 C                     0.096954
     35 C                    -0.389255
     36 C                    -0.375447
     37 C                    -0.205320
     38 C                    -0.331750
     39 C                     0.248441
     40 C                    -0.069028
     41 C                     0.203232
     42 C                    -0.330706
     43 C                    -0.205498
     44 C                    -0.374163
     45 C                     0.202971
     46 C                    -0.204689
     47 C                    -0.374622
     48 C                     0.201654
     49 C                    -0.070655
     50 C                     0.252382
     51 C                    -0.333648
     52 C                     0.200017
     53 C                    -0.368742
     54 C                    -0.206263
     55 C                    -0.331355
     56 C                    -0.357584
     57 C                     0.048767
     58 C                    -0.213775
     59 C                     0.050448
     60 C                    -0.348898
     61 C                     0.324803
     62 N                    -0.742080
     63 C                    -0.759939
     64 C                    -0.757132
     65 C                     0.338775
     66 C                     0.096336
     67 C                     0.087452
     68 C                     0.345298
     69 C                    -0.340666
     70 C                    -0.229049
     71 C                    -0.235320
     72 C                    -0.281661
     73 C                    -0.281170
     74 C                    -0.234881
     75 C                    -0.228531
     76 C                    -0.341623
     77 H                     0.236918
     78 H                     0.238646
     79 H                     0.245853
     80 H                     0.240175
     81 H                     0.248426
     82 H                     0.250352
     83 H                     0.246176
     84 H                     0.241004
     85 H                     0.205804
     86 H                     0.214723
     87 H                     0.216730
     88 H                     0.237260
     89 H                     0.234718
     90 H                     0.215835
     91 H                     0.214651
     92 H                     0.205454
     93 H                     0.233583
     94 H                     0.232828
     95 H                     0.231526
     96 H                     0.229791
     97 H                     0.222772
     98 H                     0.229982
     99 H                     0.222879
    100 H                     0.222871
    101 H                     0.229900
    102 H                     0.222370
    103 H                     0.229627
    104 H                     0.222036
    105 H                     0.223233
    106 H                     0.222291
    107 H                     0.229926
    108 H                     0.223043
    109 H                     0.236745
    110 H                     0.237592
    111 H                     0.240669
    112 H                     0.249553
    113 H                     0.245558
    114 H                     0.240144
    115 H                     0.248619
    116 H                     0.246279
    117 H                     0.205453
    118 H                     0.214943
    119 H                     0.216386
    120 H                     0.234767
    121 H                     0.234891
    122 H                     0.216204
    123 H                     0.214828
    124 H                     0.205261
  ----------------------------------------
  Sum of atomic charges =    -0.000000

                    Cartesian Multipole Moments
 -----------------------------------------------------------------
    Charge (ESU x 10^10)
                -0.0000
    Dipole Moment (Debye)
         X       0.0577      Y       0.2840      Z      -0.2339
       Tot       0.3724
    Quadrupole Moments (Debye-Ang)
        XX    -446.8485     XY       4.2389     YY    -368.9092
        XZ      -0.2947     YZ      -4.3695     ZZ    -435.3006

 Total job time:  78163.37s(wall), 506197.47s(cpu)
        *  Thank you very much for using Q-Chem.  Have a nice day.  *
