 Q-Chem 5.1, Q-Chem, Inc., Pleasanton, CA (2018)
 Q-Chem 5.1.1 for Intel X86 EM64T Linux

User input:
--------------------------------------------------------------
$rem
threads 8
jobtype	sp
method PBEh-3c
basis def2-mSVP
mem_static	1024
mem_total	14000
sym_ignore	true
cis_n_roots             6
cis_singlets            true
cis_triplets		true
rpa                     false
calc_soc 		true
cis_moments             true
cis_relaxed_density	true
$end

$molecule
read t3opt.mol
$end

--------------------------------------------------------------

             Standard Nuclear Orientation (Angstroms)
    I     Atom           X                Y                Z
 ----------------------------------------------------------------
    1      N       0.0000000000     0.0000000000     0.0000000000
    2      C       0.0000000000     0.0000000000     1.3793020000
    3      C       1.3074363854     0.0000000000    -0.4407456099
    4      C      -1.0797911621    -0.0088877062     2.2517103234
    5      H      -2.0989692544    -0.0131447490     1.8885065588
    6      C      -0.8027360655    -0.0159288322     3.6061096763
    7      H      -1.6230990745    -0.0286382021     4.3114955065
    8      C       1.7932408931    -0.0649662889    -1.7429341406
    9      H       1.1260565765    -0.1053275478    -2.5938218117
   10      C       3.1648198864    -0.0880960259    -1.9155033376
   11      H       3.5695166731    -0.1392178848    -2.9181340103
   12      C       4.0362907053    -0.0523352893    -0.8238563715
   13      H       5.1044898391    -0.0720952677    -0.9934966752
   14      C       3.5442150435    -0.0019044286     0.4671056909
   15      H       4.2246787653     0.0099424272     1.3091096246
   16      C       2.1677206750     0.0214547560     0.6698467988
   17      C       0.5111445841    -0.0083712344     4.0828533342
   18      H       0.6906891841    -0.0187114563     5.1493371602
   19      C       1.5795088050     0.0134191219     3.2058334422
   20      H       2.5966124374     0.0222244955     3.5769521358
   21      C       1.3284140028     0.0182940666     1.8390827297
   22      C      -1.1290760242    -0.1424711063    -0.8298555023
   23      C      -1.3845045534     0.7933074499    -1.8200367281
   24      H      -0.7384012568     1.6577392436    -1.9192642907
   25      C      -1.9631122976    -1.2415277131    -0.6846988349
   26      H      -1.7449576160    -1.9809863719     0.0767176367
   27      C      -3.0510394395    -1.4139955874    -1.5303963413
   28      C      -2.4511548614     0.6168241137    -2.6936942543
   29      C      -3.2964461787    -0.4900582851    -2.5550620372
   30      C      -3.9355866544    -2.6196595568    -1.3769498510
   31      H      -3.6684599348    -3.2072138015    -0.4991294382
   32      H      -4.9857279536    -2.3379058633    -1.2786991564
   33      H      -3.8659247818    -3.2783317388    -2.2455747557
   34      C      -2.6808600785     1.6015746087    -3.8068982794
   35      H      -1.9648488752     2.4220377195    -3.7754511003
   36      H      -3.6823953144     2.0333206626    -3.7650048633
   37      H      -2.5872425366     1.1200501979    -4.7831750589
   38      B      -4.4518951638    -0.7556219516    -3.5953673980
   39      C      -5.8471528865    -0.1354960269    -3.4417987626
   40      C      -6.1206118031     0.7413121848    -2.3808479032
   41      H      -5.3356936825     0.9634273998    -1.6664807662
   42      C      -7.3658888367     1.3112517962    -2.2514848047
   43      C      -7.9249116226     2.2390270955    -1.2905002390
   44      C      -7.4503432740     2.8970874119    -0.1809636356
   45      H      -6.4304937094     2.7752979474     0.1604991649
   46      C      -8.3298330572     3.7500353167     0.5169841942
   47      H      -7.9588732269     4.2702831693     1.3900382817
   48      C      -9.6387723988     3.9459714628     0.1326630109
   49      H     -10.2724982634     4.6117115445     0.7048492943
   50      C      -9.2679509058     2.4502552009    -1.6762122000
   51      C     -10.1558886765     3.2824426580    -1.0058254079
   52      C      -9.6010391336     1.7116333638    -2.8333221116
   53      C     -10.8762499314     1.8043246645    -3.3399682729
   54      H     -11.1808376739     1.2571916219    -4.2231569566
   55      C     -11.7953639326     2.6392892100    -2.6754929411
   56      H     -12.8011492171     2.7167011310    -3.0670289961
   57      C     -11.4623040875     3.3598197017    -1.5481766733
   58      H     -12.2065494475     3.9884449132    -1.0757603958
   59      C      -8.4112809703     0.9919046442    -3.2116303517
   60      C      -8.1612886881     0.1331522445    -4.2553947526
   61      H      -8.9412900008    -0.1019854288    -4.9715997297
   62      C      -6.8966036541    -0.4455277391    -4.4063315913
   63      B      -6.6306674673    -1.4011894602    -5.5766917569
   64      C      -5.2276157966    -1.9951907873    -5.7424823440
   65      C      -4.9556011338    -2.8587960239    -6.8140332859
   66      H      -5.7470640322    -3.1108458922    -7.5113726487
   67      C      -3.6964785572    -3.3799478900    -6.9805099020
   68      C      -2.6371333671    -3.0399752357    -6.0504923921
   69      C      -2.8897105900    -2.2047472857    -4.9904073991
   70      H      -2.0994278976    -1.9587367690    -4.2909301472
   71      C      -4.1728198200    -1.6686560789    -4.7995017188
   72      C      -3.1459337327    -4.2805204266    -7.9750174468
   73      C      -3.6398475132    -4.9357713958    -9.0790389183
   74      H      -4.6717597956    -4.8345424502    -9.3904309222
   75      C      -2.7667062412    -5.7607090106    -9.8183885582
   76      H      -3.1545996328    -6.2773561364   -10.6866858192
   77      C      -1.4437139681    -5.9321243202    -9.4764620913
   78      H      -0.8126062053    -6.5773082081   -10.0753127995
   79      C      -1.7888906452    -4.4614462974    -7.6323108376
   80      C      -0.9080349907    -5.2695290071    -8.3456998687
   81      C      -1.4356562460    -3.7313786855    -6.4774071624
   82      C      -0.1421095093    -3.8140903200    -6.0195087335
   83      H       0.1868304409    -3.2804964800    -5.1373642705
   84      C       0.7712402111    -4.6243487829    -6.7261403573
   85      H       1.7894434510    -4.6908848463    -6.3661700938
   86      C       0.4163310051    -5.3339999405    -7.8517446730
   87      H       1.1529816184    -5.9446546125    -8.3592685800
   88      C      -7.7714019430    -1.7804171804    -6.5972816097
   89      C      -7.8916622570    -1.0988401362    -7.8156776659
   90      C      -8.8748845893    -1.4661203602    -8.7259937010
   91      H      -8.9494456815    -0.9607470317    -9.6823033174
   92      C      -9.7567386473    -2.4937039809    -8.4285941228
   93      C      -9.6510982108    -3.1673184515    -7.2217417320
   94      H     -10.3529693502    -3.9616162836    -6.9955279659
   95      C      -8.6576785413    -2.8276102937    -6.3113077153
   96      N     -10.7430891776    -2.8706788760    -9.3626677207
   97      C     -10.8373425848    -4.1130008374    -9.9592756672
   98      C     -11.6922032372    -2.0380389889    -9.9233910958
   99      C     -11.9692236838    -0.7020087795    -9.6599331781
  100      H     -11.4126185998    -0.1453864155    -8.9182519151
  101      C     -12.9824952198    -0.1013662357   -10.3859928816
  102      H     -13.2145727104     0.9395852730   -10.2025011416
  103      C     -10.0566121163    -5.2486739684    -9.7751130912
  104      H      -9.2450182021    -5.2680053867    -9.0603724003
  105      C     -10.3434408565    -6.3590170821   -10.5494414834
  106      H      -9.7482001027    -7.2542475649   -10.4250090808
  107      C     -11.3759232196    -6.3498434322   -11.4910286763
  108      H     -11.5703800836    -7.2359288422   -12.0804109996
  109      C     -12.1413574344    -5.2147525015   -11.6767937287
  110      H     -12.9330761108    -5.2012011176   -12.4158346558
  111      C     -11.8718976264    -4.0860281670   -10.9093253032
  112      C     -13.7103303234    -0.8039968755   -11.3501435291
  113      H     -14.4928311871    -0.2998854209   -11.9013761872
  114      C     -13.4349832193    -2.1342231540   -11.6017526726
  115      H     -13.9972025496    -2.6810950079   -12.3486903430
  116      C     -12.4208010362    -2.7589333904   -10.8843765521
  117      C      -8.5380848505    -3.5912829467    -5.0230616272
  118      H      -9.3051187753    -4.3607396568    -4.9395519933
  119      H      -8.6330150494    -2.9351131081    -4.1561993468
  120      H      -7.5672009812    -4.0848377807    -4.9429211483
  121      C      -6.9338788406     0.0060475312    -8.1639304175
  122      H      -7.2270965824     0.5196729527    -9.0790969548
  123      H      -6.8745732504     0.7524081577    -7.3699356767
  124      H      -5.9228796198    -0.3790049697    -8.3133125815
 ----------------------------------------------------------------

   15   -2925.5253755725      6.81e-09  Convergence criterion met
 Total energy in the final basis set =    -2925.5253755725

         TDDFT/TDA Excitation Energies
 ---------------------------------------------------

 Excited state   1: excitation energy (eV) =    1.9706
 Total energy for state  1:                 -2925.45295684 au
    Multiplicity: Triplet
    Trans. Mom.:  0.0000 X   0.0000 Y   0.0000 Z
    Strength   :     0.0000000000
    D(245) --> V(  2) amplitude =  0.2455
    D(248) --> V(  1) amplitude =  0.9284

 Excited state   2: excitation energy (eV) =    2.3527
 Total energy for state  2:                 -2925.43891437 au
    Multiplicity: Triplet
    Trans. Mom.:  0.0000 X   0.0000 Y   0.0000 Z
    Strength   :     0.0000000000
    D(246) --> V(  2) amplitude =  0.4705
    D(247) --> V(  1) amplitude =  0.8044

 Excited state   3: excitation energy (eV) =    2.4226
 Total energy for state  3:                 -2925.43634515 au
    Multiplicity: Triplet
    Trans. Mom.:  0.0000 X   0.0000 Y   0.0000 Z
    Strength   :     0.0000000000
    D(246) --> V(  1) amplitude =  0.7348
    D(246) --> V(  4) amplitude = -0.2267
    D(247) --> V(  2) amplitude =  0.5468

 Excited state   4: excitation energy (eV) =    2.4953
 Total energy for state  4:                 -2925.43367476 au
    Multiplicity: Triplet
    Trans. Mom.:  0.0000 X   0.0000 Y   0.0000 Z
    Strength   :     0.0000000000
    D(245) --> V(  1) amplitude = -0.7218
    D(248) --> V(  2) amplitude = -0.5681

 Excited state   5: excitation energy (eV) =    2.6452
 Total energy for state  5:                 -2925.42816805 au
    Multiplicity: Singlet
    Trans. Mom.:  0.0502 X  -0.0232 Y  -0.0101 Z
    Strength   :     0.0002046444
    D(248) --> V(  1) amplitude =  0.9688

 Excited state   6: excitation energy (eV) =    2.7456
 Total energy for state  6:                 -2925.42447615 au
    Multiplicity: Triplet
    Trans. Mom.:  0.0000 X   0.0000 Y   0.0000 Z
    Strength   :     0.0000000000
    D(242) --> V(  1) amplitude = -0.2785
    D(251) --> V(  1) amplitude = -0.4214
    D(252) --> V(  1) amplitude =  0.8443

 Excited state   7: excitation energy (eV) =    2.7658
 Total energy for state  7:                 -2925.42373320 au
    Multiplicity: Singlet
    Trans. Mom.: -0.1764 X   0.0037 Y  -0.1012 Z
    Strength   :     0.0028032944
    D(242) --> V(  1) amplitude = -0.2357
    D(251) --> V(  1) amplitude = -0.3621
    D(252) --> V(  1) amplitude =  0.8893

 Excited state   8: excitation energy (eV) =    2.7849
 Total energy for state  8:                 -2925.42303087 au
    Multiplicity: Triplet
    Trans. Mom.:  0.0000 X   0.0000 Y   0.0000 Z
    Strength   :     0.0000000000
    D(241) --> V(  1) amplitude = -0.2236
    D(251) --> V(  1) amplitude =  0.8601
    D(252) --> V(  1) amplitude =  0.4391

 Excited state   9: excitation energy (eV) =    2.7942
 Total energy for state  9:                 -2925.42269160 au
    Multiplicity: Singlet
    Trans. Mom.:  0.0418 X   0.0243 Y   0.0463 Z
    Strength   :     0.0003067312
    D(251) --> V(  1) amplitude =  0.8964
    D(252) --> V(  1) amplitude =  0.3716

 Excited state  10: excitation energy (eV) =    3.1381
 Total energy for state 10:                 -2925.41005086 au
    Multiplicity: Singlet
    Trans. Mom.: -2.2503 X   2.0680 Y   1.7669 Z
    Strength   :     0.9581282692
    D(247) --> V(  1) amplitude =  0.9497

 Excited state  11: excitation energy (eV) =    3.3612
 Total energy for state 11:                 -2925.40185411 au
    Multiplicity: Singlet
    Trans. Mom.:  0.0099 X  -0.0095 Y   0.0016 Z
    Strength   :     0.0000157308
    D(250) --> V(  1) amplitude =  0.9989

 Excited state  12: excitation energy (eV) =    3.3731
 Total energy for state 12:                 -2925.40141750 au
    Multiplicity: Singlet
    Trans. Mom.: -0.0052 X   0.0046 Y   0.0159 Z
    Strength   :     0.0000249903
    D(249) --> V(  1) amplitude =  0.9986

 ---------------------------------------------------

                    Orbital Energies (a.u.)
 --------------------------------------------------------------

 Alpha MOs
 -- Occupied --
-14.689 -14.688 -10.493 -10.492 -10.484 -10.484 -10.483 -10.483
-10.471 -10.471 -10.471 -10.470 -10.470 -10.470 -10.470 -10.469
-10.469 -10.469 -10.469 -10.468 -10.467 -10.467 -10.467 -10.465
-10.465 -10.465 -10.465 -10.465 -10.464 -10.464 -10.463 -10.463
-10.463 -10.462 -10.461 -10.459 -10.459 -10.459 -10.452 -10.452
-10.448 -10.448 -10.448 -10.447 -10.446 -10.446 -10.446 -10.446
-10.446 -10.445 -10.445 -10.445 -10.445 -10.445 -10.445 -10.444
-10.444 -10.444 -10.444 -10.444 -10.443 -10.442 -10.442 -10.441
-10.437 -10.437 -10.437 -10.437 -10.435 -10.435 -10.435 -10.434
-10.433 -10.432  -6.951  -6.951  -1.108  -1.108  -1.020  -1.019
 -0.977  -0.977  -0.964  -0.961  -0.949  -0.948  -0.946  -0.945
 -0.940  -0.938  -0.911  -0.902  -0.888  -0.886  -0.882  -0.882
 -0.866  -0.863  -0.854  -0.853  -0.852  -0.852  -0.844  -0.844
 -0.823  -0.820  -0.818  -0.809  -0.808  -0.808  -0.807  -0.804
 -0.777  -0.777  -0.773  -0.773  -0.740  -0.739  -0.735  -0.730
 -0.729  -0.724  -0.699  -0.696  -0.693  -0.686  -0.686  -0.683
 -0.681  -0.673  -0.656  -0.656  -0.652  -0.649  -0.648  -0.648
 -0.643  -0.643  -0.605  -0.600  -0.599  -0.595  -0.594  -0.594
 -0.589  -0.587  -0.586  -0.582  -0.581  -0.573  -0.573  -0.557
 -0.557  -0.552  -0.548  -0.547  -0.533  -0.532  -0.527  -0.522
 -0.519  -0.518  -0.518  -0.516  -0.508  -0.507  -0.501  -0.500
 -0.500  -0.499  -0.498  -0.498  -0.492  -0.490  -0.489  -0.489
 -0.488  -0.487  -0.485  -0.485  -0.485  -0.483  -0.480  -0.479
 -0.478  -0.476  -0.474  -0.473  -0.473  -0.471  -0.468  -0.468
 -0.467  -0.462  -0.449  -0.446  -0.446  -0.444  -0.441  -0.434
 -0.434  -0.429  -0.426  -0.423  -0.423  -0.423  -0.421  -0.414
 -0.411  -0.411  -0.409  -0.408  -0.404  -0.401  -0.400  -0.400
 -0.399  -0.399  -0.398  -0.395  -0.393  -0.392  -0.390  -0.389
 -0.383  -0.376  -0.374  -0.371  -0.370  -0.356  -0.353  -0.346
 -0.329  -0.327  -0.326  -0.322  -0.301  -0.300  -0.296  -0.296
 -0.289  -0.286  -0.286  -0.286  -0.282  -0.268  -0.260  -0.254
 -0.251  -0.250  -0.236  -0.235

          Ground-State Mulliken Net Atomic Charges

     Atom                 Charge (a.u.)
  ----------------------------------------
      1 N                    -0.737952
      2 C                     0.343393
      3 C                     0.334883
      4 C                    -0.282223
      5 H                     0.237123
      6 C                    -0.236465
      7 H                     0.216717
      8 C                    -0.281023
      9 H                     0.234721
     10 C                    -0.235879
     11 H                     0.215752
     12 C                    -0.227284
     13 H                     0.214638
     14 C                    -0.346738
     15 H                     0.205394
     16 C                     0.103708
     17 C                    -0.228802
     18 H                     0.214752
     19 C                    -0.344376
     20 H                     0.205745
     21 C                     0.091039
     22 C                     0.319750
     23 C                    -0.356013
     24 H                     0.236920
     25 C                    -0.347929
     26 H                     0.238650
     27 C                     0.050077
     28 C                     0.049437
     29 C                    -0.212687
     30 C                    -0.761079
     31 H                     0.241009
     32 H                     0.246192
     33 H                     0.250305
     34 C                    -0.758691
     35 H                     0.240198
     36 H                     0.248382
     37 H                     0.245789
     38 B                     0.688850
     39 C                    -0.153414
     40 C                    -0.389125
     41 H                     0.229826
     42 C                     0.096931
     43 C                     0.201677
     44 C                    -0.374747
     45 H                     0.222010
     46 C                    -0.204718
     47 H                     0.229640
     48 C                    -0.333560
     49 H                     0.223202
     50 C                    -0.070553
     51 C                     0.252317
     52 C                     0.200019
     53 C                    -0.368656
     54 H                     0.222328
     55 C                    -0.206300
     56 H                     0.229935
     57 C                    -0.331322
     58 H                     0.223038
     59 C                     0.085093
     60 C                    -0.382008
     61 H                     0.231552
     62 C                    -0.152786
     63 B                     0.689591
     64 C                    -0.153516
     65 C                    -0.384601
     66 H                     0.232824
     67 C                     0.086465
     68 C                     0.094762
     69 C                    -0.383467
     70 H                     0.233617
     71 C                    -0.152675
     72 C                     0.202935
     73 C                    -0.374297
     74 H                     0.222330
     75 C                    -0.205518
     76 H                     0.229918
     77 C                    -0.330601
     78 H                     0.222840
     79 C                    -0.068886
     80 C                     0.248340
     81 C                     0.203229
     82 C                    -0.375447
     83 H                     0.222804
     84 C                    -0.205339
     85 H                     0.229980
     86 C                    -0.331745
     87 H                     0.222892
     88 C                    -0.213441
     89 C                     0.049519
     90 C                    -0.348507
     91 H                     0.237605
     92 C                     0.324279
     93 C                    -0.356973
     94 H                     0.236767
     95 C                     0.048172
     96 N                    -0.742000
     97 C                     0.338475
     98 C                     0.345245
     99 C                    -0.281526
    100 H                     0.234763
    101 C                    -0.235339
    102 H                     0.216346
    103 C                    -0.281140
    104 H                     0.234885
    105 C                    -0.234827
    106 H                     0.216198
    107 C                    -0.228550
    108 H                     0.214820
    109 C                    -0.341822
    110 H                     0.205242
    111 C                     0.096688
    112 C                    -0.229090
    113 H                     0.214928
    114 C                    -0.340513
    115 H                     0.205454
    116 C                     0.087358
    117 C                    -0.759890
    118 H                     0.240676
    119 H                     0.249576
    120 H                     0.245554
    121 C                    -0.757145
    122 H                     0.240145
    123 H                     0.246326
    124 H                     0.248646
  ----------------------------------------
  Sum of atomic charges =    -0.000000

                    Cartesian Multipole Moments
 -----------------------------------------------------------------
    Charge (ESU x 10^10)
                -0.0000
    Dipole Moment (Debye)
         X      -0.1772      Y       0.3276      Z      -0.0052
       Tot       0.3725
    Quadrupole Moments (Debye-Ang)
        XX    -413.8236     XY     -31.0308     YY    -414.6923
        XZ     -24.3462     YZ      16.8287     ZZ    -420.0123

 Total job time:  14201.96s(wall), 55446.00s(cpu)
        *  Thank you very much for using Q-Chem.  Have a nice day.  *
