 Q-Chem 5.1, Q-Chem, Inc., Pleasanton, CA (2018)
 Q-Chem 5.1.1 for Intel X86 EM64T Linux

User input:
--------------------------------------------------------------
$rem
threads 8
jobtype	sp
method PBEh-3c
basis def2-mSVP
mem_static	1024
mem_total	14000
sym_ignore	true
cis_n_roots             6
cis_singlets            true
cis_triplets		true
rpa                     false
calc_soc 		true
cis_moments             true
cis_relaxed_density	true
$end

$molecule
read t4opt.mol
$end

--------------------------------------------------------------

             Standard Nuclear Orientation (Angstroms)
    I     Atom           X                Y                Z
 ----------------------------------------------------------------
    1      N       0.0000000000     0.0000000000     0.0000000000
    2      C       0.0000000000     0.0000000000     1.3755760000
    3      C       1.3045429158     0.0000000000    -0.4434921087
    4      C      -1.0769448578    -0.0083614658     2.2513200198
    5      H      -2.0953457694    -0.0269585881     1.8857960076
    6      C      -0.7949330476     0.0095223227     3.6049924923
    7      H      -1.6126556882     0.0033192108     4.3137854395
    8      C       1.7866695209    -0.0397913818    -1.7489112096
    9      H       1.1173093065    -0.0555465077    -2.5995627400
   10      C       3.1582123640    -0.0483818357    -1.9257905096
   11      H       3.5573962000    -0.0780694315    -2.9320661184
   12      C       0.5207584533     0.0387542435     4.0777305755
   13      H       0.7028735386     0.0540719426     5.1439245284
   14      C       1.5865794265     0.0486384177     3.1971735052
   15      H       2.6045850626     0.0722825967     3.5658361845
   16      C       1.3317630027     0.0270443608     1.8312544125
   17      C       4.0340393490    -0.0163408832    -0.8360908244
   18      H       5.1018726658    -0.0204936470    -1.0097498556
   19      C       3.5461198105     0.0198155451     0.4569557455
   20      H       4.2276707935     0.0395045842     1.2982636552
   21      C       2.1695545693     0.0234344939     0.6623309669
   22      C      -1.1000495574    -0.1247322728    -0.8782434869
   23      C      -1.3872119269     0.9159347664    -1.7468971474
   24      H      -0.8594031232     1.8564525746    -1.6385472852
   25      C      -1.7813622666    -1.3271710497    -0.9813915782
   26      H      -1.5494227161    -2.1328830418    -0.2937795614
   27      C      -2.2715446539     0.7232801936    -2.8000378541
   28      C      -2.6828071270    -1.5275372860    -2.0212619556
   29      C      -2.8903656272    -0.5221581931    -2.9729908896
   30      C      -3.3307812941    -2.8705007310    -2.2085335809
   31      H      -3.1773978333    -3.5193688830    -1.3463879272
   32      H      -4.4049666592    -2.7763440939    -2.3728577611
   33      H      -2.9205900448    -3.3797768888    -3.0839753343
   34      C      -2.4723140705     1.8140797982    -3.8145414757
   35      H      -2.0305018646     2.7549900289    -3.4863032430
   36      H      -3.5298988684     1.9885729788    -4.0146381650
   37      H      -2.0092468498     1.5474866695    -4.7680351699
   38      B      -3.4962091501    -0.8490853111    -4.3940329915
   39      C      -4.9407935345    -0.5794233294    -4.8287734854
   40      C      -5.9107253408    -0.1396410448    -3.9078703636
   41      H      -5.6200645151     0.0003702803    -2.8713034964
   42      C      -7.2045052290     0.1129119618    -4.3105964188
   43      C      -7.5621263719    -0.0638035659    -5.6796369709
   44      C      -6.6303013572    -0.4771906332    -6.5959018341
   45      H      -6.9211343222    -0.5947594437    -7.6357577750
   46      C      -5.3063484654    -0.7446689727    -6.2004363967
   47      C      -8.9684004088     0.2765929800    -5.8374034027
   48      C      -9.8468614054     0.3018107711    -6.8911872868
   49      H      -9.5454664512     0.0210533908    -7.8931965673
   50      C      -9.4277379017     0.6516035632    -4.5605506343
   51      C     -10.7324851561     1.0522438037    -4.2924295059
   52      C     -11.1778289299     0.7040415739    -6.6469082498
   53      H     -11.8741291355     0.7241228560    -7.4758385766
   54      C     -11.6200773316     1.0696943316    -5.3959641861
   55      H     -12.6509985141     1.3711657692    -5.2568654872
   56      C      -8.3967114471     0.5695395801    -3.5996307241
   57      C      -8.6961549677     0.9085829574    -2.3044225880
   58      H      -7.9532328337     0.8682987544    -1.5178804534
   59      C     -10.0143579597     1.3194755983    -2.0010668589
   60      H     -10.2463741515     1.5859081572    -0.9779386062
   61      C     -11.0099958911     1.3946307688    -2.9477650278
   62      H     -12.0042388742     1.7158218998    -2.6629615663
   63      B      -4.2571705742    -1.1720370881    -7.2198110671
   64      C      -2.8312874177    -1.5108357825    -6.7961648012
   65      C      -1.8589899420    -1.9258238181    -7.7304230327
   66      H      -2.1176150142    -2.0138321356    -8.7813929328
   67      C      -0.5794035260    -2.2102612170    -7.3273167527
   68      C      -0.2199943392    -2.0899754108    -5.9541164323
   69      C      -1.1519778945    -1.6758881685    -5.0337480189
   70      H      -0.8624856874    -1.5718021839    -3.9939949822
   71      C      -2.4711775064    -1.3748528032    -5.4233656628
   72      C       1.1929054877    -2.4356687059    -5.8253145060
   73      C       2.0979004262    -2.5026097867    -4.7936203687
   74      H       1.8203372308    -2.2816755373    -3.7703081682
   75      C       1.6421621313    -2.7476117140    -7.1247462864
   76      C       2.9486724024    -3.1149928194    -7.4403594369
   77      C       0.6058868196    -2.6289752364    -8.0720875155
   78      C       0.8911103136    -2.8948255136    -9.3900775517
   79      H       0.1376279429    -2.8171696280   -10.1643652620
   80      C       2.2064892852    -3.2726984530    -9.7371880507
   81      H       2.4295368487    -3.4800904319   -10.7763036969
   82      C       3.2133170740    -3.3833332759    -8.8048859702
   83      H       4.2090976267    -3.6739202960    -9.1171977759
   84      C       3.4304425945    -2.8727356313    -5.0852230699
   85      H       4.1384273762    -2.9220375795    -4.2676356263
   86      C       3.8593740287    -3.1712016974    -6.3588576752
   87      H       4.8921616012    -3.4479279899    -6.5324043821
   88      C      -4.6088405762    -1.2009640199    -8.7526619033
   89      C      -5.0375117366    -2.3932707922    -9.3899449775
   90      C      -5.2318983050    -2.4130679517   -10.7510740827
   91      H      -5.5907327206    -3.3102799819   -11.2395170254
   92      C      -5.0405380210    -1.2445503159   -11.5051871017
   93      N      -5.1849071039    -1.2860443689   -12.8770909257
   94      C      -4.6935147769    -2.2972027086   -13.6956600687
   95      C      -3.9126797271    -3.3997785077   -13.3648677545
   96      H      -3.5972498379    -3.5997848956   -12.3513197978
   97      C      -3.5198690226    -4.2383366939   -14.3951219119
   98      H      -2.9192421696    -5.1070691851   -14.1645624954
   99      C      -3.8669069383    -3.9731699850   -15.7171881706
  100      H      -3.5400238694    -4.6442491433   -16.4992679532
  101      C      -4.6047471420    -2.8420620363   -16.0437733899
  102      H      -4.8406629301    -2.6224338337   -17.0766412641
  103      C      -5.0142960211    -1.9996383413   -15.0271137071
  104      C      -5.8134493930    -0.3312083933   -13.6733727203
  105      C      -6.5207942945     0.8033989152   -13.3004436397
  106      H      -6.6444407193     1.0886000745   -12.2658921429
  107      C      -7.0942839647     1.5548243210   -14.3140518985
  108      H      -7.6450347004     2.4487057255   -14.0578025283
  109      C      -6.9903195228     1.1722830227   -15.6492530457
  110      H      -7.4546480691     1.7791485534   -16.4139862835
  111      C      -6.3186223856     0.0100645196   -16.0080716464
  112      H      -6.2687804521    -0.2998507213   -17.0435764655
  113      C      -5.7308612017    -0.7452646338   -15.0130596208
  114      C      -4.6707686336    -0.0459583512   -10.8807785507
  115      H      -4.4703194757     0.8303097457   -11.4839136495
  116      C      -4.4432172026    -0.0208896631    -9.5249507012
  117      C      -3.9729156876     1.2332346659    -8.8599328873
  118      H      -3.8629372676     2.0526143646    -9.5694943237
  119      H      -4.6738748478     1.5397798095    -8.0828028427
  120      H      -3.0127900513     1.0737178353    -8.3675686644
  121      C      -5.2709864824    -3.6200860709    -8.5664108783
  122      H      -5.6503023414    -4.4476748330    -9.1648747635
  123      H      -5.9825401771    -3.4185005020    -7.7655194290
  124      H      -4.3449618417    -3.9386960927    -8.0854409016
 ----------------------------------------------------------------

   15   -2925.5204333294      7.25e-09  Convergence criterion met
 Total energy in the final basis set =    -2925.5204333294

         TDDFT/TDA Excitation Energies
 ---------------------------------------------------

 Excited state   1: excitation energy (eV) =    2.1905
 Total energy for state  1:                 -2925.43993251 au
    Multiplicity: Triplet
    Trans. Mom.:  0.0000 X   0.0000 Y   0.0000 Z
    Strength   :     0.0000000000
    D(247) --> V(  1) amplitude =  0.9135

 Excited state   2: excitation energy (eV) =    2.4067
 Total energy for state  2:                 -2925.43198694 au
    Multiplicity: Triplet
    Trans. Mom.:  0.0000 X   0.0000 Y   0.0000 Z
    Strength   :     0.0000000000
    D(246) --> V(  2) amplitude =  0.4305
    D(248) --> V(  1) amplitude =  0.7873

 Excited state   3: excitation energy (eV) =    2.4744
 Total energy for state  3:                 -2925.42950110 au
    Multiplicity: Triplet
    Trans. Mom.:  0.0000 X   0.0000 Y   0.0000 Z
    Strength   :     0.0000000000
    D(246) --> V(  1) amplitude =  0.7431
    D(246) --> V(  4) amplitude =  0.2330
    D(248) --> V(  2) amplitude =  0.5007

 Excited state   4: excitation energy (eV) =    2.5156
 Total energy for state  4:                 -2925.42798563 au
    Multiplicity: Triplet
    Trans. Mom.:  0.0000 X   0.0000 Y   0.0000 Z
    Strength   :     0.0000000000
    D(245) --> V(  1) amplitude = -0.2536
    D(252) --> V(  1) amplitude =  0.9293

 Excited state   5: excitation energy (eV) =    2.5359
 Total energy for state  5:                 -2925.42724022 au
    Multiplicity: Singlet
    Trans. Mom.:  0.1280 X  -0.0162 Y   0.1411 Z
    Strength   :     0.0022718269
    D(245) --> V(  1) amplitude = -0.2326
    D(252) --> V(  1) amplitude =  0.9565

 Excited state   6: excitation energy (eV) =    2.7004
 Total energy for state  6:                 -2925.42119480 au
    Multiplicity: Triplet
    Trans. Mom.:  0.0000 X   0.0000 Y   0.0000 Z
    Strength   :     0.0000000000
    D(242) --> V(  1) amplitude = -0.3462
    D(243) --> V(  1) amplitude = -0.5284
    D(244) --> V(  1) amplitude =  0.2817
    D(247) --> V(  2) amplitude =  0.5514

 Excited state   7: excitation energy (eV) =    2.8554
 Total energy for state  7:                 -2925.41549954 au
    Multiplicity: Singlet
    Trans. Mom.:  0.0337 X  -0.0220 Y   0.0361 Z
    Strength   :     0.0002044208
    D(247) --> V(  1) amplitude =  0.9555

 Excited state   8: excitation energy (eV) =    2.9110
 Total energy for state  8:                 -2925.41345688 au
    Multiplicity: Triplet
    Trans. Mom.:  0.0000 X   0.0000 Y   0.0000 Z
    Strength   :     0.0000000000
    D(251) --> V(  1) amplitude =  0.9508

 Excited state   9: excitation energy (eV) =    2.9220
 Total energy for state  9:                 -2925.41305092 au
    Multiplicity: Singlet
    Trans. Mom.:  0.2102 X  -0.0710 Y  -0.1269 Z
    Strength   :     0.0046764601
    D(251) --> V(  1) amplitude =  0.9567

 Excited state  10: excitation energy (eV) =    3.1750
 Total energy for state 10:                 -2925.40375564 au
    Multiplicity: Singlet
    Trans. Mom.: -3.2171 X   0.9603 Y   0.6658 Z
    Strength   :     0.9112929886
    D(248) --> V(  1) amplitude =  0.9355

 Excited state  11: excitation energy (eV) =    3.4058
 Total energy for state 11:                 -2925.39527130 au
    Multiplicity: Singlet
    Trans. Mom.:  0.1558 X  -0.0534 Y  -0.0817 Z
    Strength   :     0.0028204576
    D(250) --> V(  1) amplitude =  0.9888

 Excited state  12: excitation energy (eV) =    3.4788
 Total energy for state 12:                 -2925.39258821 au
    Multiplicity: Singlet
    Trans. Mom.:  0.5426 X  -0.0976 Y  -0.2102 Z
    Strength   :     0.0296749486
    D(246) --> V(  1) amplitude =  0.9206

 ---------------------------------------------------

                    Orbital Energies (a.u.)
 --------------------------------------------------------------

 Alpha MOs
 -- Occupied --
-14.691 -14.687 -10.493 -10.492 -10.487 -10.486 -10.483 -10.483
-10.471 -10.471 -10.470 -10.470 -10.469 -10.468 -10.468 -10.468
-10.468 -10.467 -10.467 -10.467 -10.467 -10.466 -10.465 -10.465
-10.465 -10.465 -10.464 -10.464 -10.463 -10.463 -10.463 -10.462
-10.461 -10.460 -10.460 -10.459 -10.459 -10.458 -10.453 -10.450
-10.450 -10.448 -10.448 -10.448 -10.448 -10.447 -10.447 -10.447
-10.447 -10.446 -10.446 -10.446 -10.446 -10.446 -10.445 -10.445
-10.444 -10.444 -10.444 -10.443 -10.442 -10.441 -10.441 -10.440
-10.440 -10.439 -10.438 -10.437 -10.436 -10.434 -10.434 -10.433
-10.432 -10.429  -6.955  -6.947  -1.110  -1.109  -1.021  -1.018
 -0.978  -0.975  -0.966  -0.963  -0.952  -0.949  -0.946  -0.946
 -0.939  -0.935  -0.913  -0.904  -0.888  -0.887  -0.883  -0.883
 -0.864  -0.860  -0.854  -0.853  -0.852  -0.849  -0.846  -0.844
 -0.828  -0.820  -0.816  -0.811  -0.809  -0.808  -0.808  -0.807
 -0.777  -0.774  -0.773  -0.772  -0.741  -0.739  -0.732  -0.731
 -0.728  -0.725  -0.700  -0.696  -0.693  -0.689  -0.686  -0.684
 -0.680  -0.671  -0.658  -0.656  -0.654  -0.651  -0.650  -0.645
 -0.643  -0.642  -0.603  -0.601  -0.597  -0.595  -0.593  -0.593
 -0.589  -0.588  -0.586  -0.581  -0.581  -0.575  -0.572  -0.559
 -0.553  -0.552  -0.549  -0.546  -0.533  -0.531  -0.527  -0.523
 -0.520  -0.518  -0.518  -0.513  -0.509  -0.507  -0.505  -0.503
 -0.500  -0.499  -0.498  -0.495  -0.493  -0.491  -0.490  -0.489
 -0.489  -0.488  -0.487  -0.485  -0.484  -0.483  -0.480  -0.480
 -0.477  -0.476  -0.474  -0.474  -0.472  -0.471  -0.469  -0.468
 -0.468  -0.461  -0.451  -0.447  -0.445  -0.444  -0.442  -0.435
 -0.432  -0.430  -0.427  -0.424  -0.424  -0.423  -0.421  -0.416
 -0.413  -0.411  -0.411  -0.407  -0.403  -0.400  -0.400  -0.399
 -0.398  -0.398  -0.397  -0.396  -0.393  -0.392  -0.390  -0.389
 -0.386  -0.377  -0.373  -0.372  -0.366  -0.357  -0.355  -0.344
 -0.329  -0.327  -0.326  -0.319  -0.301  -0.298  -0.297  -0.297
 -0.286  -0.286  -0.286  -0.285  -0.283  -0.266  -0.260  -0.259
 -0.255  -0.251  -0.237  -0.230

          Ground-State Mulliken Net Atomic Charges

     Atom                 Charge (a.u.)
  ----------------------------------------
      1 N                    -0.731805
      2 C                     0.352234
      3 C                     0.334675
      4 C                    -0.282723
      5 H                     0.232779
      6 C                    -0.238047
      7 H                     0.216826
      8 C                    -0.287102
      9 H                     0.241792
     10 C                    -0.247277
     11 H                     0.224025
     12 C                    -0.228663
     13 H                     0.214670
     14 C                    -0.344022
     15 H                     0.205208
     16 C                     0.088081
     17 C                    -0.226625
     18 H                     0.214288
     19 C                    -0.347843
     20 H                     0.205581
     21 C                     0.110406
     22 C                     0.274725
     23 C                    -0.332978
     24 H                     0.234880
     25 C                    -0.312595
     26 H                     0.232843
     27 C                     0.041838
     28 C                     0.045749
     29 C                    -0.209739
     30 C                    -0.751475
     31 H                     0.240387
     32 H                     0.242552
     33 H                     0.248673
     34 C                    -0.761538
     35 H                     0.243136
     36 H                     0.248727
     37 H                     0.249589
     38 B                     0.675144
     39 C                    -0.151004
     40 C                    -0.403348
     41 H                     0.222665
     42 C                     0.114334
     43 C                     0.093495
     44 C                    -0.386434
     45 H                     0.231323
     46 C                    -0.144866
     47 C                     0.198548
     48 C                    -0.375052
     49 H                     0.222128
     50 C                    -0.064790
     51 C                     0.253260
     52 C                    -0.205785
     53 H                     0.229841
     54 C                    -0.331402
     55 H                     0.222952
     56 C                     0.195406
     57 C                    -0.381840
     58 H                     0.219755
     59 C                    -0.203197
     60 H                     0.228638
     61 C                    -0.334732
     62 H                     0.223285
     63 B                     0.680078
     64 C                    -0.157791
     65 C                    -0.386856
     66 H                     0.231289
     67 C                     0.097962
     68 C                     0.107800
     69 C                    -0.386151
     70 H                     0.234742
     71 C                    -0.140045
     72 C                     0.202847
     73 C                    -0.395713
     74 H                     0.240739
     75 C                    -0.065564
     76 C                     0.250501
     77 C                     0.197020
     78 C                    -0.377876
     79 H                     0.221178
     80 C                    -0.204700
     81 H                     0.229216
     82 C                    -0.332230
     83 H                     0.222341
     84 C                    -0.210964
     85 H                     0.233813
     86 C                    -0.333657
     87 H                     0.222324
     88 C                    -0.231582
     89 C                     0.065204
     90 C                    -0.387581
     91 H                     0.250688
     92 C                     0.360939
     93 N                    -0.744563
     94 C                     0.334572
     95 C                    -0.284499
     96 H                     0.247707
     97 C                    -0.230692
     98 H                     0.218022
     99 C                    -0.231447
    100 H                     0.215590
    101 C                    -0.344109
    102 H                     0.206909
    103 C                     0.096750
    104 C                     0.342796
    105 C                    -0.284676
    106 H                     0.246582
    107 C                    -0.231698
    108 H                     0.218620
    109 C                    -0.231696
    110 H                     0.215628
    111 C                    -0.342156
    112 H                     0.207276
    113 C                     0.085178
    114 C                    -0.389971
    115 H                     0.247365
    116 C                     0.056269
    117 C                    -0.762781
    118 H                     0.239735
    119 H                     0.247873
    120 H                     0.249681
    121 C                    -0.756553
    122 H                     0.238244
    123 H                     0.245928
    124 H                     0.246591
  ----------------------------------------
  Sum of atomic charges =    -0.000000

                    Cartesian Multipole Moments
 -----------------------------------------------------------------
    Charge (ESU x 10^10)
                -0.0000
    Dipole Moment (Debye)
         X      -1.6073      Y      -0.2006      Z       0.0010
       Tot       1.6198
    Quadrupole Moments (Debye-Ang)
        XX    -372.5560     XY     -21.9472     YY    -432.1252
        XZ      -9.7611     YZ       4.0152     ZZ    -425.4108

 Total job time:  15603.38s(wall), 60501.38s(cpu)
        *  Thank you very much for using Q-Chem.  Have a nice day.  *
