 Q-Chem 5.0, Q-Chem, Inc., Pleasanton, CA (2017)
 Q-Chem 5.0.1 for Intel X86 EM64T Linux

User input:
--------------------------------------------------------------
$rem
threads 8
jobtype	sp
method PBEh-3c
basis def2-mSVP
mem_static	1024
mem_total	8000
sym_ignore	true
unrestricted true
scf_convergence	9
solvent_method	pcm
$end

$molecule
read incoords.mol
$end

$solvent
dielectric	1.0001
$end

$pcm
theory iefpcm
$end
--------------------------------------------------------------

   17   -2280.7029362778      6.28E-10 Convergence criterion met
 Total energy in the final basis set = -2280.70293628
 Total job time:  2574.42s(wall), 7526.18s(cpu)
        *  Thank you very much for using Q-Chem.  Have a nice day.  *
 Q-Chem 5.0, Q-Chem, Inc., Pleasanton, CA (2017)
 Q-Chem 5.0.1 for Intel X86 EM64T Linux

User input:
--------------------------------------------------------------

$rem
threads 8
jobtype opt
method PBEh-3c
basis def2-mSVP
scf_guess	read
mem_static      1024
mem_total       8000
sym_ignore      true
unrestricted true
mom_start       1
scf_algorithm	diis
scf_max_cycles	250
solvent_method	pcm
geom_opt_tol_energy 25
geom_opt_tol_gradient 75
$end

$solvent
dielectric      1.0001
$end

$pcm
theory iefpcm
$end

$occupied
1 2 3 4 5 6 7 8 9 10 11 12 13 14 15 16 17 18 19 20 21 22 23 24 25 26 27 28 29 30 31 32 33 34 35 36 37 38 39 40 41 42 43 44 45 46 47 48 49 50 51 52 53 54 55 56 57 58 59 60 61 62 63 64 65 66 67 68 69 70 71 72 73 74 75 76 77 78 79 80 81 82 83 84 85 86 87 88 89 90 91 92 93 94 95 96 97 98 99 100 101 102 103 104 105 106 107 108 109 110 111 112 113 114 115 116 117 118 119 120 121 122 123 124 125 126 127 128 129 130 131 132 133 134 135 136 137 138 139 140 141 142 143 144 145 146 147 148 149 150 151 152 153 154 155 156 157 158 159 160 161 162 163 164 165 166 167 168 169 170 171 172 173 174 175 176 177 178 179 180 181 182 183 184 185 186 187 188 189 190 191 192 193 194 195 196 197  199
1 2 3 4 5 6 7 8 9 10 11 12 13 14 15 16 17 18 19 20 21 22 23 24 25 26 27 28 29 30 31 32 33 34 35 36 37 38 39 40 41 42 43 44 45 46 47 48 49 50 51 52 53 54 55 56 57 58 59 60 61 62 63 64 65 66 67 68 69 70 71 72 73 74 75 76 77 78 79 80 81 82 83 84 85 86 87 88 89 90 91 92 93 94 95 96 97 98 99 100 101 102 103 104 105 106 107 108 109 110 111 112 113 114 115 116 117 118 119 120 121 122 123 124 125 126 127 128 129 130 131 132 133 134 135 136 137 138 139 140 141 142 143 144 145 146 147 148 149 150 151 152 153 154 155 156 157 158 159 160 161 162 163 164 165 166 167 168 169 170 171 172 173 174 175 176 177 178 179 180 181 182 183 184 185 186 187 188 189 190 191 192 193 194 195 196 197 198
$end

$molecule
read
$end

--------------------------------------------------------------

   27   -2280.6121628148      7.84E-09 Convergence criterion met
 Total energy in the final basis set = -2280.61216281
   25   -2280.6139317140      6.61E-09 Convergence criterion met
 Total energy in the final basis set = -2280.61393171
   28   -2280.6151731034      7.03E-09 Convergence criterion met
 Total energy in the final basis set = -2280.61517310
   25   -2280.6170635665      6.59E-09 Convergence criterion met
 Total energy in the final basis set = -2280.61706357
   20   -2280.6187702850      9.98E-09 Convergence criterion met
 Total energy in the final basis set = -2280.61877028
   18   -2280.6211372869      7.10E-09 Convergence criterion met
 Total energy in the final basis set = -2280.62113729
   18   -2280.6209940569      9.97E-09 Convergence criterion met
   17   -2280.6217764020      8.40E-09 Convergence criterion met
 Total energy in the final basis set = -2280.62177640
   17   -2280.6216637826      7.69E-09 Convergence criterion met
 Total energy in the final basis set = -2280.62166378
   14   -2280.6217025328      9.40E-09 Convergence criterion met
 Total energy in the final basis set = -2280.62170253
   14   -2280.6217121224      6.71E-09 Convergence criterion met
 Total energy in the final basis set = -2280.62171212
   13   -2280.6216969262      5.96E-09 Convergence criterion met
 Total energy in the final basis set = -2280.62169693
   12   -2280.6216829432      9.89E-09 Convergence criterion met
 Total energy in the final basis set = -2280.62168294

             Standard Nuclear Orientation (Angstroms)
    I     Atom           X                Y                Z
 ----------------------------------------------------------------
    1      C       0.0656302141    -0.4175363784     0.0823942786
    2      C       0.0618247807    -0.4003991173     1.4945998492
    3      H       1.0091364664    -0.3961750457     2.0219559106
    4      C      -1.1205392204    -0.3875879480     2.1871760791
    5      C      -2.3775118286    -0.3892234162     1.4626808874
    6      C      -2.4012283362    -0.4013845349     0.0934564799
    7      H      -3.3451726297    -0.4013565694    -0.4402468000
    8      C      -1.2040787209    -0.4109840236    -0.6369105979
    9      C      -1.4387208428    -0.3696299134     3.6060380740
   10      C      -0.7136515616    -0.3597802386     4.7719283116
   11      H       0.3686128316    -0.3653163450     4.7706295187
   12      C      -2.8485221973    -0.3617882332     3.6969662936
   13      C      -3.5650004923    -0.3443624925     4.8905394086
   14      C      -3.4550993033    -0.3732531528     2.4232191330
   15      C      -4.8269647219    -0.3668640796     2.3333472426
   16      H      -5.3360325055    -0.3744167369     1.3777506983
   17      C      -1.4141571004    -0.3420529376     5.9974720586
   18      H      -0.8425081045    -0.3341788121     6.9160497745
   19      C      -2.7895848908    -0.3343509935     6.0725935059
   20      H      -3.2760704069    -0.3205693546     7.0398838188
   21      C      -5.5720761954    -0.3496983815     3.5287328996
   22      H      -6.6525149365    -0.3446749130     3.4666411544
   23      C      -4.9751822339    -0.3386533837     4.7713515994
   24      H      -5.5923110482    -0.3252887828     5.6611416242
   25      B      -1.2558463329    -0.4067547466    -2.1685954697
   26      C       0.0758646047    -0.4223907206    -2.9241400639
   27      C       0.0734303195    -0.4254046027    -4.3267500606
   28      H      -0.8721793087    -0.4013644978    -4.8564459341
   29      C       1.2523291472    -0.4639207421    -5.0200943860
   30      C       2.5241209076    -0.5044529598    -4.3276550523
   31      C       2.5508396423    -0.4956815275    -2.9589523270
   32      H       3.4936658238    -0.5296350949    -2.4254586867
   33      C       1.3487052281    -0.4504006033    -2.2183941521
   34      C       1.5097678194    -0.4831556431    -6.4425234747
   35      C       0.7209492312    -0.4635461871    -7.5683709013
   36      H      -0.3590561790    -0.4199686559    -7.5068042601
   37      C       2.9106331490    -0.5396128967    -6.5901845625
   38      C       3.5550512371    -0.5800441121    -7.8252762450
   39      C       3.5683414386    -0.5550213114    -5.3413196701
   40      C       4.9400979449    -0.6146968942    -5.3345001852
   41      H       5.5049502749    -0.6324726839    -4.4116225072
   42      C       1.3509391677    -0.5018825923    -8.8285990713
   43      H       0.7338305333    -0.4863643601    -9.7175806700
   44      C       2.7205948511    -0.5591060525    -8.9678050606
   45      H       3.1590426297    -0.5881409531    -9.9577354043
   46      C       5.6200783382    -0.6558546192    -6.5714315955
   47      H       6.7010307167    -0.7032202766    -6.5626973325
   48      C       4.9664787343    -0.6398337878    -7.7833854064
   49      H       5.5353322295    -0.6744135412    -8.7043052481
   50      B       1.3937577774    -0.4422415615    -0.6857571778
   51      C      -2.6316542578    -0.4007987198    -2.9489174228
   52      C      -3.3452077309     0.7930024922    -3.1635958662
   53      C      -4.5449700879     0.7883322379    -3.8559817424
   54      H      -5.0868106633     1.7136363912    -4.0172860144
   55      C      -5.0729528112    -0.3955579467    -4.3594864173
   56      O      -6.2473007486    -0.2942460865    -5.0201197444
   57      C      -4.3817128352    -1.5805177233    -4.1602087974
   58      H      -4.7625857517    -2.5226131774    -4.5368167354
   59      C      -3.1744070965    -1.5841042846    -3.4618059926
   60      C      -6.8219988175    -1.4614801739    -5.5417571731
   61      H      -7.7502157074    -1.1632596258    -6.0252426543
   62      H      -7.0568210339    -2.1948661480    -4.7630070189
   63      H      -6.1825029777    -1.9442660292    -6.2883498230
   64      C      -2.7969353285     2.1204949905    -2.7089578324
   65      H      -2.2003254382     1.9978532423    -1.8022154680
   66      H      -3.6232753966     2.7841426975    -2.4410163338
   67      C      -2.5105534480    -2.9181740120    -3.2298688109
   68      H      -1.4318536020    -2.7931722573    -3.1162490476
   69      H      -2.6501465605    -3.5540595286    -4.1085943526
   70      C      -1.9465336405     2.7858265483    -3.7886518655
   71      H      -1.0814422745     2.1728157921    -4.0427193827
   72      H      -1.5781108544     3.7572844770    -3.4567874474
   73      H      -2.5231622723     2.9383630894    -4.7017252588
   74      C      -3.0660563039    -3.6295787852    -1.9983825659
   75      H      -2.8953445995    -3.0407194422    -1.0968526834
   76      H      -2.5903152781    -4.6007526557    -1.8561596313
   77      H      -4.1409099601    -3.7922867342    -2.0884205078
   78      C       2.7743879500    -0.4671365495     0.0729473144
   79      C       3.5374839203     0.6957794557     0.2166049846
   80      C       4.7570780558     0.6738946900     0.8928556978
   81      H       5.3131510323     1.5987502470     0.9861148615
   82      C       5.2355422921    -0.5119024459     1.4314664290
   83      O       6.4017734998    -0.6335385816     2.1025034635
   84      C       4.4870773156    -1.6758841372     1.2880815831
   85      H       4.8700921470    -2.5990624645     1.7084874891
   86      C       3.2728404580    -1.6620040461     0.6223383680
   87      C       7.1790763408     0.5152942335     2.2994946497
   88      H       8.0536632970     0.2068079700     2.8688346043
   89      H       7.5181683742     0.9568921102     1.3562358307
   90      H       6.6477012690     1.2851662343     2.8691656756
   91      C       3.0355948158     2.0179826438    -0.3067200787
   92      H       2.5012258010     1.8765759097    -1.2491929214
   93      H       3.8847167176     2.6667414885    -0.5382002915
   94      C       2.5260396793    -2.9624463169     0.4582616827
   95      H       1.4487803519    -2.7945706266     0.5319878128
   96      H       2.7828881550    -3.6342015890     1.2813690618
   97      C       2.8337291570    -3.6555153397    -0.8674199705
   98      H       2.5269296973    -3.0449369482    -1.7167767501
   99      H       3.9015746587    -3.8520033401    -0.9690959260
  100      H       2.3081777833    -4.6086320663    -0.9407276187
  101      C       2.1163648478     2.7271689217     0.6850299955
  102      H       1.2217084210     2.1373410226     0.8858626680
  103      H       2.6209499184     2.8972057521     1.6368897216
  104      H       1.7932582767     3.6943097456     0.2975732124
 ----------------------------------------------------------------

   10   -2280.6216872023      8.38E-09 Convergence criterion met
 Total energy in the final basis set = -2280.62168720
 Final energy is   -2280.62168720232
 **  OPTIMIZATION CONVERGED  **

                    Orbital Energies (a.u.)
 --------------------------------------------------------------

 Alpha MOs
 -- Occupied --
-19.518 -19.517 -10.492 -10.492 -10.485 -10.484 -10.474 -10.472
-10.472 -10.471 -10.470 -10.469 -10.468 -10.467 -10.467 -10.466
-10.466 -10.466 -10.466 -10.466 -10.465 -10.465 -10.465 -10.464
-10.463 -10.463 -10.463 -10.462 -10.459 -10.458 -10.453 -10.452
-10.451 -10.450 -10.443 -10.442 -10.440 -10.439 -10.439 -10.439
-10.438 -10.437 -10.425 -10.425 -10.424 -10.424 -10.423 -10.423
-10.419 -10.419 -10.414 -10.413 -10.412 -10.411 -10.406 -10.404
 -6.911  -6.911  -1.175  -1.175  -1.020  -1.019  -0.962  -0.960
 -0.945  -0.944  -0.938  -0.937  -0.907  -0.899  -0.879  -0.878
 -0.864  -0.860  -0.855  -0.854  -0.852  -0.851  -0.820  -0.818
 -0.815  -0.811  -0.811  -0.800  -0.792  -0.792  -0.767  -0.765
 -0.736  -0.734  -0.732  -0.722  -0.703  -0.701  -0.696  -0.694
 -0.692  -0.682  -0.681  -0.668  -0.651  -0.645  -0.642  -0.640
 -0.621  -0.621  -0.600  -0.596  -0.592  -0.590  -0.585  -0.579
 -0.577  -0.577  -0.575  -0.554  -0.554  -0.545  -0.540  -0.533
 -0.530  -0.529  -0.529  -0.523  -0.512  -0.510  -0.505  -0.500
 -0.497  -0.496  -0.494  -0.494  -0.492  -0.491  -0.485  -0.485
 -0.484  -0.484  -0.482  -0.476  -0.475  -0.474  -0.473  -0.468
 -0.461  -0.456  -0.452  -0.451  -0.448  -0.448  -0.441  -0.435
 -0.432  -0.427  -0.427  -0.425  -0.421  -0.421  -0.420  -0.414
 -0.406  -0.405  -0.403  -0.402  -0.401  -0.400  -0.399  -0.399
 -0.396  -0.393  -0.392  -0.390  -0.383  -0.381  -0.376  -0.374
 -0.371  -0.365  -0.355  -0.354  -0.350  -0.347  -0.346  -0.338
 -0.333  -0.328  -0.326  -0.321  -0.300  -0.298  -0.268  -0.265
 -0.265  -0.264  -0.258  -0.242  -0.239  -0.162

 Beta MOs
 -- Occupied --
-19.518 -19.517 -10.492 -10.492 -10.485 -10.484 -10.475 -10.473
-10.473 -10.472 -10.470 -10.469 -10.468 -10.467 -10.466 -10.466
-10.466 -10.466 -10.465 -10.465 -10.465 -10.465 -10.465 -10.464
-10.464 -10.463 -10.463 -10.463 -10.461 -10.459 -10.452 -10.451
-10.450 -10.449 -10.445 -10.444 -10.442 -10.441 -10.439 -10.438
-10.438 -10.437 -10.425 -10.425 -10.424 -10.424 -10.423 -10.423
-10.420 -10.419 -10.414 -10.413 -10.412 -10.411 -10.406 -10.404
 -6.908  -6.907  -1.175  -1.175  -1.023  -1.022  -0.965  -0.962
 -0.944  -0.944  -0.937  -0.937  -0.910  -0.902  -0.879  -0.878
 -0.863  -0.860  -0.855  -0.853  -0.851  -0.850  -0.824  -0.817
 -0.815  -0.811  -0.811  -0.806  -0.792  -0.792  -0.767  -0.765
 -0.736  -0.734  -0.732  -0.723  -0.702  -0.701  -0.695  -0.694
 -0.692  -0.683  -0.681  -0.670  -0.652  -0.646  -0.642  -0.640
 -0.621  -0.620  -0.599  -0.596  -0.590  -0.589  -0.585  -0.578
 -0.577  -0.576  -0.575  -0.553  -0.553  -0.546  -0.540  -0.532
 -0.531  -0.529  -0.529  -0.523  -0.512  -0.510  -0.505  -0.500
 -0.497  -0.497  -0.495  -0.494  -0.493  -0.491  -0.491  -0.489
 -0.485  -0.484  -0.483  -0.476  -0.475  -0.474  -0.473  -0.468
 -0.462  -0.455  -0.452  -0.451  -0.448  -0.448  -0.441  -0.436
 -0.433  -0.431  -0.429  -0.427  -0.425  -0.421  -0.420  -0.413
 -0.406  -0.405  -0.403  -0.402  -0.401  -0.399  -0.398  -0.398
 -0.396  -0.393  -0.392  -0.390  -0.384  -0.381  -0.376  -0.375
 -0.371  -0.370  -0.354  -0.354  -0.352  -0.351  -0.346  -0.345
 -0.333  -0.328  -0.323  -0.318  -0.300  -0.299  -0.284  -0.265
 -0.265  -0.263  -0.261  -0.256  -0.242  -0.239

          Ground-State Mulliken Net Atomic Charges

     Atom                 Charge (a.u.)    Spin (a.u.)
  --------------------------------------------------------
      1 C                    -0.117066      -0.159110
      2 C                    -0.399198       0.060303
      3 H                     0.243597      -0.002921
      4 C                     0.121150      -0.077253
      5 C                     0.094405      -0.082927
      6 C                    -0.391038       0.055252
      7 H                     0.241536      -0.002600
      8 C                    -0.115593      -0.126425
      9 C                     0.201240      -0.009532
     10 C                    -0.383301       0.056091
     11 H                     0.225518      -0.003220
     12 C                    -0.061720      -0.089729
     13 C                     0.254279       0.000011
     14 C                     0.197797      -0.010998
     15 C                    -0.372003       0.051551
     16 H                     0.226418      -0.002912
     17 C                    -0.201948      -0.027542
     18 H                     0.229367       0.001342
     19 C                    -0.338015       0.034717
     20 H                     0.222523      -0.002058
     21 C                    -0.205113      -0.025941
     22 H                     0.230164       0.001313
     23 C                    -0.332922       0.027282
     24 H                     0.222751      -0.001638
     25 B                     0.544819       0.351257
     26 C                    -0.115238      -0.123825
     27 C                    -0.391171       0.054623
     28 H                     0.242573      -0.002615
     29 C                     0.094705      -0.079868
     30 C                     0.121841      -0.071552
     31 C                    -0.398473       0.057082
     32 H                     0.244074      -0.002792
     33 C                    -0.118512      -0.154617
     34 C                     0.198111      -0.010511
     35 C                    -0.373786       0.048796
     36 H                     0.225355      -0.002760
     37 C                    -0.061912      -0.084035
     38 C                     0.253392      -0.000356
     39 C                     0.202004      -0.009742
     40 C                    -0.385092       0.053782
     41 H                     0.224700      -0.003092
     42 C                    -0.204568      -0.024650
     43 H                     0.229513       0.001249
     44 C                    -0.332613       0.025807
     45 H                     0.222311      -0.001547
     46 C                    -0.201634      -0.026483
     47 H                     0.228711       0.001290
     48 C                    -0.338055       0.033498
     49 H                     0.222206      -0.001984
     50 B                     0.544758       0.357908
     51 C                    -0.216662      -0.034908
     52 C                     0.072153       0.006525
     53 C                    -0.373381      -0.002642
     54 H                     0.215721       0.000511
     55 C                     0.398596       0.002520
     56 O                    -0.455063       0.000278
     57 C                    -0.423545      -0.002263
     58 H                     0.218444       0.000451
     59 C                     0.070429       0.006692
     60 C                    -0.404189      -0.000045
     61 H                     0.236865       0.000004
     62 H                     0.202014       0.000033
     63 H                     0.201642       0.000041
     64 C                    -0.540764       0.002473
     65 H                     0.251240      -0.002372
     66 H                     0.224554       0.000358
     67 C                    -0.540973       0.002910
     68 H                     0.255615      -0.002680
     69 H                     0.220595       0.000327
     70 C                    -0.643408      -0.000081
     71 H                     0.238312      -0.000354
     72 H                     0.214735       0.000027
     73 H                     0.215380      -0.000270
     74 C                    -0.639819      -0.000046
     75 H                     0.237150      -0.000298
     76 H                     0.215204       0.000026
     77 H                     0.210821      -0.000244
     78 C                    -0.207495      -0.036708
     79 C                     0.075860       0.008058
     80 C                    -0.429337      -0.002834
     81 H                     0.218120       0.000485
     82 C                     0.398826       0.003310
     83 O                    -0.454743       0.000393
     84 C                    -0.379399      -0.003097
     85 H                     0.215802       0.000549
     86 C                     0.074431       0.007702
     87 C                    -0.404193      -0.000061
     88 H                     0.236657       0.000003
     89 H                     0.201335       0.000055
     90 H                     0.202109       0.000046
     91 C                    -0.539700       0.001322
     92 H                     0.252371      -0.001867
     93 H                     0.219709       0.000213
     94 C                    -0.539329       0.001079
     95 H                     0.249328      -0.001742
     96 H                     0.224205       0.000217
     97 C                    -0.645739      -0.000170
     98 H                     0.241817      -0.000534
     99 H                     0.215788      -0.000351
    100 H                     0.214699       0.000018
    101 C                    -0.643891      -0.000113
    102 H                     0.242722      -0.000519
    103 H                     0.212374      -0.000369
    104 H                     0.215162       0.000017
  --------------------------------------------------------
  Sum of atomic charges =    -0.000000

                    Cartesian Multipole Moments
 -----------------------------------------------------------------
    Charge (ESU x 10^10)
                -0.0000
    Dipole Moment (Debye)
         X      -0.0628      Y      -0.0637      Z      -0.2384
       Tot       0.2546
    Quadrupole Moments (Debye-Ang)
        XX    -293.7677     XY      16.2707     YY    -340.2344
        XZ     -12.6199     YZ      10.7373     ZZ    -277.9075

 Total job time:  39120.26s(wall), 112963.10s(cpu)
        *  Thank you very much for using Q-Chem.  Have a nice day.  *
