 Q-Chem 5.0, Q-Chem, Inc., Pleasanton, CA (2017)
 Q-Chem 5.0.1 for Intel X86 EM64T Linux

User input:
--------------------------------------------------------------
$rem
threads 8
jobtype	sp
method PBEh-3c
basis def2-mSVP
mem_static	1024
mem_total	8000
sym_ignore	true
unrestricted true
scf_convergence	9
solvent_method	pcm
$end

$molecule
read incoords.mol
$end

$solvent
dielectric	4.33
$end

$pcm
theory iefpcm
$end
--------------------------------------------------------------

   17   -2280.7230740991      3.71E-10 Convergence criterion met
 Total energy in the final basis set = -2280.72307410
 Total job time:  3004.17s(wall), 8127.90s(cpu)
        *  Thank you very much for using Q-Chem.  Have a nice day.  *
 Q-Chem 5.0, Q-Chem, Inc., Pleasanton, CA (2017)
 Q-Chem 5.0.1 for Intel X86 EM64T Linux

User input:
--------------------------------------------------------------

$rem
threads 8
jobtype opt
method PBEh-3c
basis def2-mSVP
scf_guess	read
mem_static      1024
mem_total       8000
sym_ignore      true
unrestricted true
mom_start       1
scf_algorithm	diis
scf_max_cycles	250
solvent_method	pcm
geom_opt_tol_energy 25
geom_opt_tol_gradient 75
$end

$solvent
dielectric      4.33
$end

$pcm
theory iefpcm
$end

$occupied
1 2 3 4 5 6 7 8 9 10 11 12 13 14 15 16 17 18 19 20 21 22 23 24 25 26 27 28 29 30 31 32 33 34 35 36 37 38 39 40 41 42 43 44 45 46 47 48 49 50 51 52 53 54 55 56 57 58 59 60 61 62 63 64 65 66 67 68 69 70 71 72 73 74 75 76 77 78 79 80 81 82 83 84 85 86 87 88 89 90 91 92 93 94 95 96 97 98 99 100 101 102 103 104 105 106 107 108 109 110 111 112 113 114 115 116 117 118 119 120 121 122 123 124 125 126 127 128 129 130 131 132 133 134 135 136 137 138 139 140 141 142 143 144 145 146 147 148 149 150 151 152 153 154 155 156 157 158 159 160 161 162 163 164 165 166 167 168 169 170 171 172 173 174 175 176 177 178 179 180 181 182 183 184 185 186 187 188 189 190 191 192 193 194 195 196 197  199
1 2 3 4 5 6 7 8 9 10 11 12 13 14 15 16 17 18 19 20 21 22 23 24 25 26 27 28 29 30 31 32 33 34 35 36 37 38 39 40 41 42 43 44 45 46 47 48 49 50 51 52 53 54 55 56 57 58 59 60 61 62 63 64 65 66 67 68 69 70 71 72 73 74 75 76 77 78 79 80 81 82 83 84 85 86 87 88 89 90 91 92 93 94 95 96 97 98 99 100 101 102 103 104 105 106 107 108 109 110 111 112 113 114 115 116 117 118 119 120 121 122 123 124 125 126 127 128 129 130 131 132 133 134 135 136 137 138 139 140 141 142 143 144 145 146 147 148 149 150 151 152 153 154 155 156 157 158 159 160 161 162 163 164 165 166 167 168 169 170 171 172 173 174 175 176 177 178 179 180 181 182 183 184 185 186 187 188 189 190 191 192 193 194 195 196 197 198
$end

$molecule
read
$end

--------------------------------------------------------------

   21   -2280.6432332633      8.76E-09 Convergence criterion met
 Total energy in the final basis set = -2280.64323326
   17   -2280.7244975847      8.20E-09 Convergence criterion met
 Total energy in the final basis set = -2280.72449758
   13   -2280.7263160874      4.94E-09 Convergence criterion met
 Total energy in the final basis set = -2280.72631609
   13   -2280.7286525284      4.68E-09 Convergence criterion met
 Total energy in the final basis set = -2280.72865253
   13   -2280.7321944315      4.76E-09 Convergence criterion met
 Total energy in the final basis set = -2280.73219443
   13   -2280.7341030036      5.75E-09 Convergence criterion met
 Total energy in the final basis set = -2280.73410300
   13   -2280.7340022405      5.38E-09 Convergence criterion met
   12   -2280.7348085949      9.03E-09 Convergence criterion met
 Total energy in the final basis set = -2280.73480859
   12   -2280.7348154959      8.98E-09 Convergence criterion met
 Total energy in the final basis set = -2280.73481550
   12   -2280.7348137831      8.89E-09 Convergence criterion met
 Total energy in the final basis set = -2280.73481378
   12   -2280.7348195840      8.93E-09 Convergence criterion met
 Total energy in the final basis set = -2280.73481958
   12   -2280.7348293506      8.93E-09 Convergence criterion met
 Total energy in the final basis set = -2280.73482935
   12   -2280.7348357375      8.92E-09 Convergence criterion met
 Total energy in the final basis set = -2280.73483574

             Standard Nuclear Orientation (Angstroms)
    I     Atom           X                Y                Z
 ----------------------------------------------------------------
    1      C       0.0334413209    -0.3869665387     0.0972173179
    2      C       0.0402043700    -0.3776888336     1.4985584592
    3      H       0.9840932424    -0.3974081207     2.0321510628
    4      C      -1.1541828494    -0.3428443767     2.1997873458
    5      C      -2.3770465667    -0.3125012811     1.4927815121
    6      C      -2.3967161239    -0.3234776489     0.1117690873
    7      H      -3.3425131194    -0.3056592789    -0.4187700689
    8      C      -1.1985614664    -0.3603227067    -0.6023319153
    9      C      -1.4684641443    -0.3300642183     3.6330870692
   10      C      -0.7447738450    -0.3479722564     4.7962038646
   11      H       0.3376861992    -0.3774077914     4.7974765173
   12      C      -2.8744071557    -0.2924867839     3.7261043989
   13      C      -3.5914263740    -0.2723580232     4.9168212563
   14      C      -3.4732123101    -0.2797010070     2.4537923902
   15      C      -4.8403485344    -0.2441314168     2.3590460336
   16      H      -5.3488991408    -0.2324882165     1.4024889059
   17      C      -1.4452551901    -0.3277839708     6.0276988718
   18      H      -0.8712136515    -0.3423475981     6.9448554840
   19      C      -2.8189448712    -0.2912859821     6.1027906578
   20      H      -3.3072124615    -0.2774572694     7.0694657377
   21      C      -5.5950345972    -0.2226506712     3.5554982062
   22      H      -6.6748427995    -0.1947930841     3.4863507038
   23      C      -5.0034078881    -0.2361665538     4.7982914252
   24      H      -5.6211272811    -0.2190821548     5.6879031440
   25      B      -1.2311777419    -0.3877493120    -2.1578149395
   26      C       0.1111133100    -0.4040545692    -2.9422194483
   27      C       0.0924431209    -0.4234861380    -4.3367851198
   28      H      -0.8534386798    -0.4283317986    -4.8667655257
   29      C       1.2789063228    -0.4394928617    -5.0411927491
   30      C       2.5207065354    -0.4407371255    -4.3686234199
   31      C       2.5475135301    -0.4290201268    -2.9847927058
   32      H       3.4954360780    -0.4420292408    -2.4588327514
   33      C       1.3495149987    -0.4066934813    -2.2580272461
   34      C       1.5257170340    -0.4594554944    -6.4792194483
   35      C       0.7333083055    -0.4661160388    -7.5983037946
   36      H      -0.3480268855    -0.4552043202    -7.5350139639
   37      C       2.9225543872    -0.4734343702    -6.6338901621
   38      C       3.5637700579    -0.4947684559    -7.8688706498
   39      C       3.5784283840    -0.4634339394    -5.3873074183
   40      C       4.9487522314    -0.4760581926    -5.3816947577
   41      H       5.5176158243    -0.4701135714    -4.4604765436
   42      C       1.3587407316    -0.4874170256    -8.8675995803
   43      H       0.7348900308    -0.4925056389    -9.7521584497
   44      C       2.7270734635    -0.5016547512    -9.0125120550
   45      H       3.1645159510    -0.5179056233   -10.0034111978
   46      C       5.6328482075    -0.4979321804    -6.6224756441
   47      H       6.7148887936    -0.5079422973    -6.6121585845
   48      C       4.9782005719    -0.5071044216    -7.8327418631
   49      H       5.5452047050    -0.5240701929    -8.7556065936
   50      B       1.3730117319    -0.4200410395    -0.7003195730
   51      C      -2.5998476921    -0.4154668415    -2.9356657667
   52      C      -3.3055406854     0.7666847896    -3.2139073387
   53      C      -4.5039864619     0.7226567898    -3.9081836834
   54      H      -5.0434512445     1.6395572081    -4.1204972946
   55      C      -5.0305607107    -0.4893177816    -4.3472144465
   56      O      -6.2022193824    -0.4260478514    -5.0140768423
   57      C      -4.3395296670    -1.6635687003    -4.0824549280
   58      H      -4.7189909578    -2.6248372373    -4.4081316554
   59      C      -3.1345561313    -1.6270886259    -3.3822090137
   60      C      -6.7759695147    -1.6254922313    -5.4794038238
   61      H      -7.7034559993    -1.3532554441    -5.9783211962
   62      H      -7.0086469455    -2.3159498792    -4.6632318553
   63      H      -6.1317402880    -2.1402633235    -6.1984910382
   64      C      -2.7477346248     2.1132433581    -2.8321660079
   65      H      -2.0896317731     2.0240177922    -1.9633660078
   66      H      -3.5623982252     2.7733754254    -2.5239812626
   67      C      -2.4604594933    -2.9395991155    -3.0700679725
   68      H      -1.3902861695    -2.7906310608    -2.9026276781
   69      H      -2.5349496264    -3.6053092047    -3.9341145015
   70      C      -1.9829790215     2.7607788496    -3.9850307830
   71      H      -1.1340743917     2.1476210467    -4.2886576300
   72      H      -1.6007417402     3.7414641833    -3.6998470396
   73      H      -2.6264080963     2.8903706054    -4.8560784674
   74      C      -3.0717465765    -3.6249894181    -1.8500204090
   75      H      -2.9865496631    -2.9963501629    -0.9631220513
   76      H      -2.5692738492    -4.5697193986    -1.6397620153
   77      H      -4.1303938605    -3.8356378932    -2.0068326336
   78      C       2.7441112394    -0.4870675831     0.0566240488
   79      C       3.5162268133     0.6610756852     0.2505564815
   80      C       4.7286149129     0.5940169751     0.9360266011
   81      H       5.2963413831     1.5061155497     1.0744614366
   82      C       5.1869324973    -0.6219842285     1.4273074312
   83      O       6.3444502006    -0.7852940913     2.1013751724
   84      C       4.4256595548    -1.7712562845     1.2272758038
   85      H       4.7911909340    -2.7192219302     1.6073640839
   86      C       3.2169493623    -1.7126409116     0.5533749606
   87      C       7.1443493821     0.3477465751     2.3434549458
   88      H       8.0124552784     0.0021443983     2.9003896362
   89      H       7.4885321321     0.8160213664     1.4164483823
   90      H       6.6229214442     1.1007723978     2.9419355765
   91      C       3.0263550822     2.0066645142    -0.2214703545
   92      H       2.4529558241     1.9000003596    -1.1465532287
   93      H       3.8808982828     2.6396657366    -0.4733874899
   94      C       2.4542658335    -2.9917727651     0.3119790145
   95      H       1.3788117347    -2.7956340753     0.2898798079
   96      H       2.6151887453    -3.6759816558     1.1486216514
   97      C       2.8640468942    -3.6832504097    -0.9876549354
   98      H       2.6692282802    -3.0510523090    -1.8543002518
   99      H       3.9274651422    -3.9250367160    -0.9852974392
  100      H       2.3090742730    -4.6122185993    -1.1250034884
  101      C       2.1653209138     2.7159560482     0.8222825722
  102      H       1.2683665942     2.1411917009     1.0541437867
  103      H       2.7156496668     2.8618941150     1.7524773317
  104      H       1.8463103263     3.6949654426     0.4627297797
 ----------------------------------------------------------------

   12   -2280.7348334398      8.90E-09 Convergence criterion met
 Total energy in the final basis set = -2280.73483344
 Final energy is   -2280.73483343976
 **  OPTIMIZATION CONVERGED  **

                    Orbital Energies (a.u.)
 --------------------------------------------------------------

 Alpha MOs
 -- Occupied --
-19.526 -19.526 -10.503 -10.503 -10.484 -10.483 -10.465 -10.465
-10.464 -10.464 -10.464 -10.464 -10.463 -10.463 -10.462 -10.462
-10.462 -10.462 -10.460 -10.460 -10.460 -10.460 -10.460 -10.459
-10.457 -10.457 -10.457 -10.457 -10.455 -10.454 -10.452 -10.452
-10.451 -10.451 -10.451 -10.451 -10.447 -10.447 -10.435 -10.435
-10.434 -10.434 -10.434 -10.434 -10.434 -10.433 -10.433 -10.433
-10.431 -10.431 -10.420 -10.420 -10.419 -10.419 -10.418 -10.417
 -6.949  -6.949  -1.182  -1.182  -1.016  -1.016  -0.963  -0.959
 -0.956  -0.955  -0.932  -0.932  -0.909  -0.901  -0.889  -0.888
 -0.866  -0.864  -0.854  -0.854  -0.846  -0.845  -0.824  -0.821
 -0.818  -0.813  -0.812  -0.805  -0.802  -0.801  -0.773  -0.772
 -0.734  -0.728  -0.726  -0.720  -0.712  -0.711  -0.703  -0.702
 -0.688  -0.680  -0.678  -0.665  -0.657  -0.647  -0.646  -0.645
 -0.631  -0.630  -0.593  -0.592  -0.590  -0.586  -0.583  -0.583
 -0.582  -0.574  -0.573  -0.563  -0.563  -0.544  -0.542  -0.536
 -0.532  -0.532  -0.526  -0.522  -0.513  -0.507  -0.503  -0.503
 -0.501  -0.500  -0.499  -0.495  -0.493  -0.489  -0.488  -0.486
 -0.485  -0.484  -0.483  -0.481  -0.480  -0.478  -0.476  -0.465
 -0.462  -0.459  -0.458  -0.456  -0.453  -0.452  -0.442  -0.439
 -0.436  -0.435  -0.433  -0.429  -0.429  -0.427  -0.424  -0.418
 -0.413  -0.412  -0.408  -0.406  -0.400  -0.400  -0.397  -0.395
 -0.395  -0.393  -0.392  -0.391  -0.390  -0.388  -0.383  -0.381
 -0.378  -0.372  -0.363  -0.362  -0.360  -0.357  -0.355  -0.351
 -0.340  -0.339  -0.319  -0.313  -0.295  -0.295  -0.282  -0.277
 -0.276  -0.262  -0.258  -0.255  -0.252  -0.250

 Beta MOs
 -- Occupied --
-19.526 -19.526 -10.503 -10.503 -10.484 -10.483 -10.465 -10.465
-10.464 -10.464 -10.464 -10.464 -10.463 -10.463 -10.462 -10.462
-10.462 -10.462 -10.460 -10.460 -10.460 -10.460 -10.460 -10.459
-10.457 -10.457 -10.457 -10.457 -10.455 -10.454 -10.452 -10.452
-10.451 -10.451 -10.451 -10.451 -10.447 -10.447 -10.435 -10.435
-10.434 -10.434 -10.434 -10.434 -10.434 -10.433 -10.433 -10.433
-10.431 -10.431 -10.420 -10.420 -10.419 -10.419 -10.418 -10.417
 -6.949  -6.949  -1.182  -1.182  -1.016  -1.016  -0.963  -0.959
 -0.956  -0.955  -0.932  -0.932  -0.909  -0.901  -0.889  -0.888
 -0.866  -0.864  -0.854  -0.854  -0.846  -0.845  -0.824  -0.821
 -0.818  -0.813  -0.812  -0.805  -0.802  -0.801  -0.773  -0.772
 -0.734  -0.728  -0.726  -0.720  -0.712  -0.711  -0.703  -0.702
 -0.688  -0.680  -0.678  -0.665  -0.657  -0.647  -0.646  -0.645
 -0.631  -0.630  -0.593  -0.592  -0.590  -0.586  -0.583  -0.583
 -0.582  -0.574  -0.573  -0.563  -0.563  -0.544  -0.542  -0.536
 -0.532  -0.532  -0.526  -0.522  -0.513  -0.507  -0.503  -0.503
 -0.501  -0.500  -0.499  -0.495  -0.493  -0.489  -0.488  -0.486
 -0.485  -0.484  -0.483  -0.481  -0.480  -0.478  -0.476  -0.465
 -0.462  -0.459  -0.458  -0.456  -0.453  -0.452  -0.442  -0.439
 -0.436  -0.435  -0.433  -0.429  -0.429  -0.427  -0.424  -0.418
 -0.413  -0.412  -0.408  -0.406  -0.400  -0.400  -0.397  -0.395
 -0.395  -0.393  -0.392  -0.391  -0.390  -0.388  -0.383  -0.381
 -0.378  -0.372  -0.363  -0.362  -0.360  -0.357  -0.355  -0.351
 -0.340  -0.339  -0.319  -0.313  -0.295  -0.295  -0.282  -0.277
 -0.276  -0.262  -0.258  -0.255  -0.252  -0.250

          Ground-State Mulliken Net Atomic Charges

     Atom                 Charge (a.u.)    Spin (a.u.)
  --------------------------------------------------------
      1 C                    -0.153282       0.000000
      2 C                    -0.399425       0.000000
      3 H                     0.247210      -0.000000
      4 C                     0.099440       0.000000
      5 C                     0.072619      -0.000000
      6 C                    -0.390712      -0.000000
      7 H                     0.245353       0.000000
      8 C                    -0.153775      -0.000000
      9 C                     0.183083       0.000000
     10 C                    -0.396182      -0.000000
     11 H                     0.245916      -0.000000
     12 C                    -0.065781      -0.000000
     13 C                     0.229102       0.000000
     14 C                     0.182133      -0.000000
     15 C                    -0.386759       0.000000
     16 H                     0.246039      -0.000000
     17 C                    -0.225862       0.000000
     18 H                     0.250440       0.000000
     19 C                    -0.348526       0.000000
     20 H                     0.246903      -0.000000
     21 C                    -0.228827       0.000000
     22 H                     0.250928       0.000000
     23 C                    -0.344160      -0.000000
     24 H                     0.246487       0.000000
     25 B                     0.658785       0.000000
     26 C                    -0.152129      -0.000000
     27 C                    -0.391012       0.000000
     28 H                     0.247597       0.000000
     29 C                     0.072948       0.000000
     30 C                     0.100783      -0.000000
     31 C                    -0.398813      -0.000000
     32 H                     0.247153      -0.000000
     33 C                    -0.153620       0.000000
     34 C                     0.182359      -0.000000
     35 C                    -0.388529       0.000000
     36 H                     0.245431       0.000000
     37 C                    -0.065853       0.000000
     38 C                     0.228482       0.000000
     39 C                     0.184184       0.000000
     40 C                    -0.397809       0.000000
     41 H                     0.245441      -0.000000
     42 C                    -0.228301      -0.000000
     43 H                     0.250829      -0.000000
     44 C                    -0.343797       0.000000
     45 H                     0.246618       0.000000
     46 C                    -0.225395      -0.000000
     47 H                     0.250245      -0.000000
     48 C                    -0.348502       0.000000
     49 H                     0.247050      -0.000000
     50 B                     0.658037      -0.000000
     51 C                    -0.232133      -0.000000
     52 C                     0.072917      -0.000000
     53 C                    -0.392909       0.000000
     54 H                     0.234092      -0.000000
     55 C                     0.391727      -0.000000
     56 O                    -0.467022       0.000000
     57 C                    -0.440519      -0.000000
     58 H                     0.247118       0.000000
     59 C                     0.069397       0.000000
     60 C                    -0.424304      -0.000000
     61 H                     0.251062       0.000000
     62 H                     0.216818       0.000000
     63 H                     0.216679       0.000000
     64 C                    -0.553216       0.000000
     65 H                     0.253796      -0.000000
     66 H                     0.240208      -0.000000
     67 C                    -0.554644       0.000000
     68 H                     0.257702       0.000000
     69 H                     0.238523       0.000000
     70 C                    -0.653432       0.000000
     71 H                     0.237327       0.000000
     72 H                     0.225572      -0.000000
     73 H                     0.221198      -0.000000
     74 C                    -0.650641      -0.000000
     75 H                     0.237057       0.000000
     76 H                     0.225657       0.000000
     77 H                     0.218586       0.000000
     78 C                    -0.222894      -0.000000
     79 C                     0.076727      -0.000000
     80 C                    -0.445000       0.000000
     81 H                     0.246702      -0.000000
     82 C                     0.391982       0.000000
     83 O                    -0.466530      -0.000000
     84 C                    -0.398925      -0.000000
     85 H                     0.234294       0.000000
     86 C                     0.071081       0.000000
     87 C                    -0.424308       0.000000
     88 H                     0.250966      -0.000000
     89 H                     0.216530       0.000000
     90 H                     0.216619      -0.000000
     91 C                    -0.553526       0.000000
     92 H                     0.254854       0.000000
     93 H                     0.237161       0.000000
     94 C                    -0.555856      -0.000000
     95 H                     0.255937       0.000000
     96 H                     0.240246       0.000000
     97 C                    -0.654979       0.000000
     98 H                     0.240002       0.000000
     99 H                     0.221391      -0.000000
    100 H                     0.224959       0.000000
    101 C                    -0.655238      -0.000000
    102 H                     0.241333      -0.000000
    103 H                     0.219334       0.000000
    104 H                     0.225978       0.000000
  --------------------------------------------------------
  Sum of atomic charges =    -0.000000

                    Cartesian Multipole Moments
 -----------------------------------------------------------------
    Charge (ESU x 10^10)
                -0.0000
    Dipole Moment (Debye)
         X       0.1125      Y      -0.0806      Z      -0.3667
       Tot       0.3919
    Quadrupole Moments (Debye-Ang)
        XX    -280.6414     XY      20.4228     YY    -334.6967
        XZ      -2.7200     YZ      12.5004     ZZ    -277.6106

 Total job time:  43229.27s(wall), 119309.65s(cpu)
        *  Thank you very much for using Q-Chem.  Have a nice day.  *
