 Q-Chem 5.0, Q-Chem, Inc., Pleasanton, CA (2017)
 Q-Chem 5.0.1 for Intel X86 EM64T Linux

User input:
--------------------------------------------------------------
$rem
threads 8
jobtype	sp
method PBEh-3c
basis def2-mSVP
mem_static	1024
mem_total	8000
sym_ignore	true
unrestricted true
scf_convergence	9
solvent_method	pcm
$end

$molecule
read incoords.mol
$end

$solvent
dielectric	8.93
$end

$pcm
theory iefpcm
$end
--------------------------------------------------------------

   17   -2280.7286342146      3.20E-10 Convergence criterion met
 Total energy in the final basis set = -2280.72863421
 Total job time:  2924.59s(wall), 7898.36s(cpu)
        *  Thank you very much for using Q-Chem.  Have a nice day.  *
 Q-Chem 5.0, Q-Chem, Inc., Pleasanton, CA (2017)
 Q-Chem 5.0.1 for Intel X86 EM64T Linux

User input:
--------------------------------------------------------------

$rem
threads 8
jobtype opt
method PBEh-3c
basis def2-mSVP
scf_guess	read
mem_static      1024
mem_total       8000
sym_ignore      true
unrestricted true
mom_start       1
scf_algorithm	diis
scf_max_cycles	250
solvent_method	pcm
geom_opt_tol_energy 25
geom_opt_tol_gradient 75
$end

$solvent
dielectric      8.93
$end
$pcm
theory iefpcm
$end

$occupied
1 2 3 4 5 6 7 8 9 10 11 12 13 14 15 16 17 18 19 20 21 22 23 24 25 26 27 28 29 30 31 32 33 34 35 36 37 38 39 40 41 42 43 44 45 46 47 48 49 50 51 52 53 54 55 56 57 58 59 60 61 62 63 64 65 66 67 68 69 70 71 72 73 74 75 76 77 78 79 80 81 82 83 84 85 86 87 88 89 90 91 92 93 94 95 96 97 98 99 100 101 102 103 104 105 106 107 108 109 110 111 112 113 114 115 116 117 118 119 120 121 122 123 124 125 126 127 128 129 130 131 132 133 134 135 136 137 138 139 140 141 142 143 144 145 146 147 148 149 150 151 152 153 154 155 156 157 158 159 160 161 162 163 164 165 166 167 168 169 170 171 172 173 174 175 176 177 178 179 180 181 182 183 184 185 186 187 188 189 190 191 192 193 194 195 196 197  199
1 2 3 4 5 6 7 8 9 10 11 12 13 14 15 16 17 18 19 20 21 22 23 24 25 26 27 28 29 30 31 32 33 34 35 36 37 38 39 40 41 42 43 44 45 46 47 48 49 50 51 52 53 54 55 56 57 58 59 60 61 62 63 64 65 66 67 68 69 70 71 72 73 74 75 76 77 78 79 80 81 82 83 84 85 86 87 88 89 90 91 92 93 94 95 96 97 98 99 100 101 102 103 104 105 106 107 108 109 110 111 112 113 114 115 116 117 118 119 120 121 122 123 124 125 126 127 128 129 130 131 132 133 134 135 136 137 138 139 140 141 142 143 144 145 146 147 148 149 150 151 152 153 154 155 156 157 158 159 160 161 162 163 164 165 166 167 168 169 170 171 172 173 174 175 176 177 178 179 180 181 182 183 184 185 186 187 188 189 190 191 192 193 194 195 196 197 198
$end

$molecule
read
$end

--------------------------------------------------------------

   22   -2280.6521270833      8.17E-09 Convergence criterion met
 Total energy in the final basis set = -2280.65212708
   16   -2280.7300283640      8.77E-09 Convergence criterion met
 Total energy in the final basis set = -2280.73002836
   13   -2280.7319388352      5.29E-09 Convergence criterion met
 Total energy in the final basis set = -2280.73193884
   13   -2280.7344378731      4.76E-09 Convergence criterion met
 Total energy in the final basis set = -2280.73443787
   13   -2280.7380745210      4.92E-09 Convergence criterion met
 Total energy in the final basis set = -2280.73807452
   13   -2280.7397508860      5.69E-09 Convergence criterion met
 Total energy in the final basis set = -2280.73975089
   13   -2280.7395078359      5.43E-09 Convergence criterion met
   13   -2280.7403647920      4.81E-09 Convergence criterion met
 Total energy in the final basis set = -2280.74036479
   13   -2280.7403667408      4.82E-09 Convergence criterion met
 Total energy in the final basis set = -2280.74036674
   13   -2280.7403613521      4.87E-09 Convergence criterion met
 Total energy in the final basis set = -2280.74036135
   13   -2280.7403565978      4.87E-09 Convergence criterion met
 Total energy in the final basis set = -2280.74035660
   13   -2280.7403529647      4.87E-09 Convergence criterion met
 Total energy in the final basis set = -2280.74035296
   13   -2280.7403506151      4.87E-09 Convergence criterion met
 Total energy in the final basis set = -2280.74035062

             Standard Nuclear Orientation (Angstroms)
    I     Atom           X                Y                Z
 ----------------------------------------------------------------
    1      C       0.0342291044    -0.3846800539     0.0967158851
    2      C       0.0405181197    -0.3748904706     1.4981172661
    3      H       0.9835574879    -0.3965987115     2.0330828749
    4      C      -1.1542556905    -0.3373080641     2.1990428539
    5      C      -2.3769995606    -0.3041601185     1.4914653460
    6      C      -2.3961720430    -0.3162547047     0.1101741735
    7      H      -3.3422382975    -0.2964175784    -0.4197010911
    8      C      -1.1977583898    -0.3571997861    -0.6034565990
    9      C      -1.4688325457    -0.3238950301     3.6322526934
   10      C      -0.7452964159    -0.3440483591     4.7958161644
   11      H       0.3371156801    -0.3759502006     4.7975534991
   12      C      -2.8748673653    -0.2831963633     3.7245832580
   13      C      -3.5923498402    -0.2622950135     4.9152921911
   14      C      -3.4735055624    -0.2688584748     2.4520365684
   15      C      -4.8408548790    -0.2308462785     2.3567419584
   16      H      -5.3491745345    -0.2181890798     1.4000494001
   17      C      -1.4464171987    -0.3229488473     6.0271710910
   18      H      -0.8726921011    -0.3392700465     6.9444995698
   19      C      -2.8203917032    -0.2835199809     6.1018148883
   20      H      -3.3092875074    -0.2691934702     7.0681681339
   21      C      -5.5958269121    -0.2083988633     3.5532604365
   22      H      -6.6755662151    -0.1786728542     3.4837811092
   23      C      -5.0044598641    -0.2234610133     4.7965329408
   24      H      -5.6221317503    -0.2056976485     5.6861697534
   25      B      -1.2300623522    -0.3898903673    -2.1590403965
   26      C       0.1127628651    -0.4043429952    -2.9426895249
   27      C       0.0943186592    -0.4247347099    -4.3372925567
   28      H      -0.8509848836    -0.4349600392    -4.8681209524
   29      C       1.2811973013    -0.4337568417    -5.0417309134
   30      C       2.5230331544    -0.4277501833    -4.3687587724
   31      C       2.5495455527    -0.4180315782    -2.9846257074
   32      H       3.4981109966    -0.4265330739    -2.4597624201
   33      C       1.3512925203    -0.4023782607    -2.2580184805
   34      C       1.5283664802    -0.4501192559    -6.4797593514
   35      C       0.7360729453    -0.4602805672    -7.5992966985
   36      H      -0.3453617908    -0.4573530711    -7.5363831013
   37      C       2.9254932515    -0.4538051098    -6.6338502401
   38      C       3.5673153831    -0.4677027459    -7.8688962658
   39      C       3.5812366066    -0.4412277365    -5.3870695814
   40      C       4.9519354366    -0.4431395417    -5.3809512134
   41      H       5.5206362329    -0.4340071016    -4.4596315077
   42      C       1.3622813010    -0.4744402821    -8.8685543172
   43      H       0.7387196120    -0.4822821884    -9.7532991870
   44      C       2.7310622336    -0.4782857155    -9.0131110433
   45      H       3.1692389089    -0.4891231128   -10.0037645928
   46      C       5.6364385758    -0.4573587110    -6.6218587794
   47      H       6.7185243409    -0.4587986872    -6.6112223987
   48      C       4.9820146267    -0.4692428907    -7.8326082522
   49      H       5.5490768039    -0.4797669405    -8.7555376592
   50      B       1.3744100126    -0.4190198010    -0.7001653006
   51      C      -2.5988677482    -0.4225747481    -2.9368091489
   52      C      -3.2979387645     0.7590868167    -3.2318748468
   53      C      -4.4986170768     0.7113010942    -3.9227229844
   54      H      -5.0329353565     1.6285072721    -4.1470299808
   55      C      -5.0323870865    -0.5044861705    -4.3429873792
   56      O      -6.2052898550    -0.4453645771    -5.0078046874
   57      C      -4.3463447007    -1.6786684493    -4.0634180659
   58      H      -4.7306884633    -2.6423873979    -4.3758039302
   59      C      -3.1400627957    -1.6378433832    -3.3655197149
   60      C      -6.7850557246    -1.6498243413    -5.4572862560
   61      H      -7.7122348294    -1.3802437635    -5.9580558315
   62      H      -7.0183869182    -2.3283225373    -4.6316555662
   63      H      -6.1434512455    -2.1756789694    -6.1703093784
   64      C      -2.7314523181     2.1084024877    -2.8727648100
   65      H      -2.0475015784     2.0241998639    -2.0235712607
   66      H      -3.5372461206     2.7697550889    -2.5446085243
   67      C      -2.4695852958    -2.9485143462    -3.0383409612
   68      H      -1.4005762659    -2.7984857192    -2.8636754005
   69      H      -2.5380904428    -3.6207928339    -3.8977013863
   70      C      -2.0016360673     2.7504381592    -4.0512484887
   71      H      -1.1662743171     2.1320868294    -4.3810667410
   72      H      -1.6063329344     3.7301351203    -3.7809480199
   73      H      -2.6728899761     2.8810639675    -4.9009315287
   74      C      -3.0906843408    -3.6250657154    -1.8183451654
   75      H      -3.0159618981    -2.9885751062    -0.9360107219
   76      H      -2.5876314722    -4.5666320599    -1.5957296598
   77      H      -4.1470385046    -3.8402757058    -1.9840663759
   78      C       2.7449553797    -0.4923194731     0.0574959157
   79      C       3.5197281462     0.6528224017     0.2597753994
   80      C       4.7316823174     0.5783801824     0.9455023116
   81      H       5.3018815466     1.4879866712     1.0902899648
   82      C       5.1867305317    -0.6423210546     1.4289683609
   83      O       6.3432782007    -0.8124573465     2.1027798351
   84      C       4.4229434055    -1.7887731057     1.2204551850
   85      H       4.7851041493    -2.7408360547     1.5938264396
   86      C       3.2147060799    -1.7224005617     0.5457803066
   87      C       7.1466775313     0.3184579824     2.3524183606
   88      H       8.0138583351    -0.0329148579     2.9070329338
   89      H       7.4911262586     0.7914150418     1.4282107106
   90      H       6.6263731994     1.0682517674     2.9554515929
   91      C       3.0334999193     2.0026475157    -0.2037359749
   92      H       2.4551624786     1.9024411344    -1.1265388226
   93      H       3.8894343343     2.6334273996    -0.4560053519
   94      C       2.4497481542    -2.9981904184     0.2938981306
   95      H       1.3754314976    -2.7974452131     0.2598445131
   96      H       2.5987200014    -3.6851273502     1.1304496645
   97      C       2.8709760052    -3.6882955707    -1.0028050532
   98      H       2.6930236044    -3.0507168886    -1.8692915173
   99      H       3.9321601211    -3.9393745948    -0.9870255560
  100      H       2.3100783729    -4.6120235970    -1.1509369195
  101      C       2.1801848125     2.7104237080     0.8473523485
  102      H       1.2833021803     2.1366895059     1.0823989740
  103      H       2.7365543619     2.8521607104     1.7745968354
  104      H       1.8617200786     3.6914009034     0.4927343326
 ----------------------------------------------------------------

   13   -2280.7403491967      4.92E-09 Convergence criterion met
 Total energy in the final basis set = -2280.74034920
 Final energy is   -2280.74034919673
 **  OPTIMIZATION CONVERGED  **

                    Orbital Energies (a.u.)
 --------------------------------------------------------------

 Alpha MOs
 -- Occupied --
-19.527 -19.527 -10.505 -10.505 -10.483 -10.482 -10.467 -10.467
-10.466 -10.466 -10.465 -10.465 -10.464 -10.464 -10.464 -10.464
-10.464 -10.464 -10.461 -10.461 -10.461 -10.461 -10.461 -10.461
-10.458 -10.458 -10.458 -10.458 -10.457 -10.456 -10.454 -10.454
-10.453 -10.453 -10.452 -10.452 -10.449 -10.449 -10.437 -10.437
-10.436 -10.435 -10.435 -10.435 -10.435 -10.435 -10.435 -10.434
-10.432 -10.432 -10.421 -10.421 -10.421 -10.420 -10.420 -10.419
 -6.951  -6.951  -1.183  -1.182  -1.018  -1.018  -0.965  -0.961
 -0.958  -0.956  -0.933  -0.933  -0.911  -0.902  -0.890  -0.890
 -0.868  -0.865  -0.856  -0.855  -0.847  -0.846  -0.826  -0.822
 -0.819  -0.814  -0.813  -0.806  -0.803  -0.802  -0.774  -0.773
 -0.736  -0.729  -0.727  -0.721  -0.714  -0.713  -0.704  -0.703
 -0.689  -0.682  -0.680  -0.666  -0.658  -0.648  -0.647  -0.646
 -0.632  -0.631  -0.595  -0.594  -0.590  -0.587  -0.584  -0.583
 -0.583  -0.575  -0.574  -0.564  -0.564  -0.545  -0.543  -0.537
 -0.533  -0.532  -0.527  -0.523  -0.514  -0.508  -0.504  -0.504
 -0.503  -0.501  -0.500  -0.496  -0.495  -0.491  -0.489  -0.488
 -0.487  -0.485  -0.484  -0.482  -0.481  -0.479  -0.477  -0.466
 -0.463  -0.459  -0.459  -0.457  -0.454  -0.453  -0.444  -0.439
 -0.437  -0.437  -0.434  -0.431  -0.430  -0.429  -0.425  -0.419
 -0.414  -0.413  -0.410  -0.407  -0.401  -0.401  -0.398  -0.397
 -0.396  -0.394  -0.393  -0.392  -0.391  -0.389  -0.384  -0.383
 -0.380  -0.373  -0.364  -0.364  -0.361  -0.359  -0.356  -0.353
 -0.342  -0.340  -0.321  -0.315  -0.297  -0.296  -0.284  -0.279
 -0.278  -0.264  -0.260  -0.257  -0.254  -0.252

 Beta MOs
 -- Occupied --
-19.527 -19.527 -10.505 -10.505 -10.483 -10.482 -10.467 -10.467
-10.466 -10.466 -10.465 -10.465 -10.464 -10.464 -10.464 -10.464
-10.464 -10.464 -10.461 -10.461 -10.461 -10.461 -10.461 -10.461
-10.458 -10.458 -10.458 -10.458 -10.457 -10.456 -10.454 -10.454
-10.453 -10.453 -10.452 -10.452 -10.449 -10.449 -10.437 -10.437
-10.436 -10.435 -10.435 -10.435 -10.435 -10.435 -10.435 -10.434
-10.432 -10.432 -10.421 -10.421 -10.421 -10.420 -10.420 -10.419
 -6.951  -6.951  -1.183  -1.182  -1.018  -1.018  -0.965  -0.961
 -0.958  -0.956  -0.933  -0.933  -0.911  -0.902  -0.890  -0.890
 -0.868  -0.865  -0.856  -0.855  -0.847  -0.846  -0.826  -0.822
 -0.819  -0.814  -0.813  -0.806  -0.803  -0.802  -0.774  -0.773
 -0.736  -0.729  -0.727  -0.721  -0.714  -0.713  -0.704  -0.703
 -0.689  -0.682  -0.680  -0.666  -0.658  -0.648  -0.647  -0.646
 -0.632  -0.631  -0.595  -0.594  -0.590  -0.587  -0.584  -0.583
 -0.583  -0.575  -0.574  -0.564  -0.564  -0.545  -0.543  -0.537
 -0.533  -0.532  -0.527  -0.523  -0.514  -0.508  -0.504  -0.504
 -0.503  -0.501  -0.500  -0.496  -0.495  -0.491  -0.489  -0.488
 -0.487  -0.485  -0.484  -0.482  -0.481  -0.479  -0.477  -0.466
 -0.463  -0.459  -0.459  -0.457  -0.454  -0.453  -0.444  -0.439
 -0.437  -0.437  -0.434  -0.431  -0.430  -0.429  -0.425  -0.419
 -0.414  -0.413  -0.410  -0.407  -0.401  -0.401  -0.398  -0.397
 -0.396  -0.394  -0.393  -0.392  -0.391  -0.389  -0.384  -0.383
 -0.380  -0.373  -0.364  -0.364  -0.361  -0.359  -0.356  -0.353
 -0.342  -0.340  -0.321  -0.315  -0.297  -0.296  -0.284  -0.279
 -0.278  -0.264  -0.260  -0.257  -0.254  -0.252

          Ground-State Mulliken Net Atomic Charges

     Atom                 Charge (a.u.)    Spin (a.u.)
  --------------------------------------------------------
      1 C                    -0.153060      -0.000000
      2 C                    -0.400049      -0.000000
      3 H                     0.249992      -0.000000
      4 C                     0.094904       0.000000
      5 C                     0.068313      -0.000000
      6 C                    -0.391424       0.000000
      7 H                     0.248114       0.000000
      8 C                    -0.154867       0.000000
      9 C                     0.178747      -0.000000
     10 C                    -0.397898      -0.000000
     11 H                     0.252483       0.000000
     12 C                    -0.066945       0.000000
     13 C                     0.221587      -0.000000
     14 C                     0.177904      -0.000000
     15 C                    -0.388592       0.000000
     16 H                     0.252574      -0.000000
     17 C                    -0.231825      -0.000000
     18 H                     0.257162       0.000000
     19 C                    -0.350616      -0.000000
     20 H                     0.254568      -0.000000
     21 C                    -0.234679       0.000000
     22 H                     0.257646       0.000000
     23 C                    -0.346397      -0.000000
     24 H                     0.254173      -0.000000
     25 B                     0.657817      -0.000000
     26 C                    -0.152630       0.000000
     27 C                    -0.391805       0.000000
     28 H                     0.250174      -0.000000
     29 C                     0.068686      -0.000000
     30 C                     0.096312       0.000000
     31 C                    -0.399253      -0.000000
     32 H                     0.249718      -0.000000
     33 C                    -0.153446      -0.000000
     34 C                     0.178116      -0.000000
     35 C                    -0.390437       0.000000
     36 H                     0.252041       0.000000
     37 C                    -0.067054       0.000000
     38 C                     0.220958      -0.000000
     39 C                     0.179943      -0.000000
     40 C                    -0.399497       0.000000
     41 H                     0.252092       0.000000
     42 C                    -0.234150      -0.000000
     43 H                     0.257601       0.000000
     44 C                    -0.346004       0.000000
     45 H                     0.254290      -0.000000
     46 C                    -0.231404      -0.000000
     47 H                     0.256998      -0.000000
     48 C                    -0.350588       0.000000
     49 H                     0.254733      -0.000000
     50 B                     0.656810       0.000000
     51 C                    -0.232638      -0.000000
     52 C                     0.069873       0.000000
     53 C                    -0.397169       0.000000
     54 H                     0.238182       0.000000
     55 C                     0.388827       0.000000
     56 O                    -0.470150      -0.000000
     57 C                    -0.443937      -0.000000
     58 H                     0.254953      -0.000000
     59 C                     0.066411       0.000000
     60 C                    -0.428799       0.000000
     61 H                     0.253605      -0.000000
     62 H                     0.220332      -0.000000
     63 H                     0.220280      -0.000000
     64 C                    -0.553037       0.000000
     65 H                     0.253386      -0.000000
     66 H                     0.243168       0.000000
     67 C                    -0.554459      -0.000000
     68 H                     0.256460      -0.000000
     69 H                     0.242258       0.000000
     70 C                    -0.655526      -0.000000
     71 H                     0.235073       0.000000
     72 H                     0.227795      -0.000000
     73 H                     0.222849       0.000000
     74 C                    -0.653648       0.000000
     75 H                     0.234895       0.000000
     76 H                     0.227733      -0.000000
     77 H                     0.221390      -0.000000
     78 C                    -0.223216       0.000000
     79 C                     0.073866       0.000000
     80 C                    -0.448053       0.000000
     81 H                     0.254601       0.000000
     82 C                     0.389093      -0.000000
     83 O                    -0.469661      -0.000000
     84 C                    -0.403467       0.000000
     85 H                     0.238373       0.000000
     86 C                     0.067353      -0.000000
     87 C                    -0.428805      -0.000000
     88 H                     0.253534      -0.000000
     89 H                     0.220175      -0.000000
     90 H                     0.220157       0.000000
     91 C                    -0.553115      -0.000000
     92 H                     0.253498       0.000000
     93 H                     0.241161      -0.000000
     94 C                    -0.556008       0.000000
     95 H                     0.255466       0.000000
     96 H                     0.243397       0.000000
     97 C                    -0.657212       0.000000
     98 H                     0.237926       0.000000
     99 H                     0.222759       0.000000
    100 H                     0.227376      -0.000000
    101 C                    -0.657825      -0.000000
    102 H                     0.239005       0.000000
    103 H                     0.221545      -0.000000
    104 H                     0.228134       0.000000
  --------------------------------------------------------
  Sum of atomic charges =    -0.000000

                    Cartesian Multipole Moments
 -----------------------------------------------------------------
    Charge (ESU x 10^10)
                -0.0000
    Dipole Moment (Debye)
         X       0.1227      Y      -0.0698      Z      -0.3745
       Tot       0.4002
    Quadrupole Moments (Debye-Ang)
        XX    -276.9879     XY      21.7308     YY    -333.7865
        XZ      -3.4034     YZ      12.9232     ZZ    -273.5344

 Total job time:  54271.04s(wall), 149237.22s(cpu)
        *  Thank you very much for using Q-Chem.  Have a nice day.  *
