 Q-Chem 5.0, Q-Chem, Inc., Pleasanton, CA (2017)
 Q-Chem 5.0.1 for Intel X86 EM64T Linux

User input:
--------------------------------------------------------------
$rem
threads 8
jobtype opt
method PBEh-3c
basis def2-mSVP
mem_static      1024
mem_total       8000
sym_ignore      true
unrestricted true
scf_algorithm	diis
scf_max_cycles	250
solvent_method  pcm
geom_opt_tol_energy 25
geom_opt_tol_gradient 75
$end

$pcm
theory  iefpcm
$end
$solvent
dielectric      4.33
$end

$molecule
read uincoords.mol
$end
--------------------------------------------------------------

   22   -2280.6433624546      7.72E-09 Convergence criterion met
 Total energy in the final basis set = -2280.64336245
   18   -2280.6451513384      7.50E-09 Convergence criterion met
 Total energy in the final basis set = -2280.64515134
   18   -2280.6453638571      8.48E-09 Convergence criterion met
 Total energy in the final basis set = -2280.64536386
   17   -2280.6458842155      9.80E-09 Convergence criterion met
 Total energy in the final basis set = -2280.64588422
   17   -2280.6461509004      8.89E-09 Convergence criterion met
 Total energy in the final basis set = -2280.64615090
   17   -2280.6461169206      9.55E-09 Convergence criterion met
 Total energy in the final basis set = -2280.64611692
   17   -2280.6462751537      8.99E-09 Convergence criterion met
 Total energy in the final basis set = -2280.64627515
   17   -2280.6462135945      9.14E-09 Convergence criterion met
   17   -2280.6462670656      9.09E-09 Convergence criterion met
 Total energy in the final basis set = -2280.64626707
   17   -2280.6462680129      9.40E-09 Convergence criterion met
 Total energy in the final basis set = -2280.64626801
   17   -2280.6462683560      9.62E-09 Convergence criterion met
 Total energy in the final basis set = -2280.64626836
   17   -2280.6462711158      9.40E-09 Convergence criterion met
 Total energy in the final basis set = -2280.64627112
   17   -2280.6462766698      9.32E-09 Convergence criterion met
 Total energy in the final basis set = -2280.64627667
   17   -2280.6462788915      9.40E-09 Convergence criterion met
 Total energy in the final basis set = -2280.64627889

             Standard Nuclear Orientation (Angstroms)
    I     Atom           X                Y                Z
 ----------------------------------------------------------------
    1      C       0.0267980694    -0.3977911300     0.0784890280
    2      C       0.0224534474    -0.3845441394     1.4906078371
    3      H       0.9694086797    -0.3985910988     2.0205150191
    4      C      -1.1590883672    -0.3510349690     2.1963145808
    5      C      -2.3978075260    -0.3251493609     1.4886563056
    6      C      -2.4215242589    -0.3364162715     0.1193539325
    7      H      -3.3781669968    -0.3156284021    -0.3958573189
    8      C      -1.2202355704    -0.3723376722    -0.6209954972
    9      C      -1.4682354185    -0.3322080739     3.6269900827
   10      C      -0.7394441330    -0.3425851270     4.7899151223
   11      H       0.3430911181    -0.3698046984     4.7855610431
   12      C      -2.8764454261    -0.2963096125     3.7293406673
   13      C      -3.5862419455    -0.2705173423     4.9264217980
   14      C      -3.4851313458    -0.2897099826     2.4591408494
   15      C      -4.8552299755    -0.2549487078     2.3784956069
   16      H      -5.3727249952    -0.2472951995     1.4264813246
   17      C      -1.4334989687    -0.3169042487     6.0236969686
   18      H      -0.8539121755    -0.3253787415     6.9379562265
   19      C      -2.8070329188    -0.2819839442     6.1087925283
   20      H      -3.2898601166    -0.2632188518     7.0781950883
   21      C      -5.5994608929    -0.2283385278     3.5799469287
   22      H      -6.6802921310    -0.2010339547     3.5198177196
   23      C      -4.9990623854    -0.2357380906     4.8191514684
   24      H      -5.6097516242    -0.2144732578     5.7136594035
   25      B      -1.2364093436    -0.3823706363    -2.1479858011
   26      C       0.0697866000    -0.3909074336    -2.9375123148
   27      C       0.0663527384    -0.3926434640    -4.3484277610
   28      H      -0.8731956189    -0.3705062608    -4.8939274148
   29      C       1.2419280251    -0.4235252999    -5.0483729981
   30      C       2.4947242488    -0.4584382224    -4.3679281837
   31      C       2.5165284484    -0.4560018748    -2.9926164094
   32      H       3.4641697533    -0.4897404235    -2.4656060019
   33      C       1.3185548101    -0.4182986255    -2.2458536371
   34      C       1.4951478512    -0.4389301821    -6.4850150634
   35      C       0.7086199982    -0.4216465560    -7.6105860626
   36      H      -0.3726161083    -0.3839892798    -7.5525305213
   37      C       2.8939104960    -0.4870190779    -6.6361272889
   38      C       3.5383796388    -0.5213864753    -7.8711701258
   39      C       3.5480186743    -0.5012062057    -5.3854878401
   40      C       4.9198229681    -0.5529940738    -5.3813353613
   41      H       5.4874504427    -0.5691233913    -4.4594492541
   42      C       1.3377638690    -0.4541791411    -8.8764706817
   43      H       0.7175607550    -0.4402936042    -9.7640635989
   44      C       2.7061586252    -0.5030542242    -9.0178770880
   45      H       3.1467879884    -0.5276450510   -10.0073213588
   46      C       5.6033504627    -0.5880997211    -6.6209425209
   47      H       6.6850855803    -0.6290796382    -6.6090075069
   48      C       4.9524994721    -0.5733738942    -7.8335789148
   49      H       5.5202467328    -0.6027826951    -8.7557439594
   50      B       1.3535514186    -0.4316805377    -0.7056807691
   51      C      -2.6092667437    -0.4165772944    -2.9305656727
   52      C      -3.3543532194     0.7845804934    -3.1781433530
   53      C      -4.5215550307     0.7286084926    -3.8808612809
   54      H      -5.1033250680     1.6218453861    -4.0763020333
   55      C      -5.0037262300    -0.5096144066    -4.3860790787
   56      O      -6.1231833929    -0.4413986874    -5.0482719245
   57      C      -4.2864693350    -1.7026000500    -4.1595881778
   58      H      -4.6476079933    -2.6472445512    -4.5450900548
   59      C      -3.1247961393    -1.6663702702    -3.4385845755
   60      C      -6.7239863827    -1.6095289749    -5.6143721754
   61      H      -7.6329883379    -1.2682574411    -6.0983088589
   62      H      -6.9723138040    -2.3328601816    -4.8379659496
   63      H      -6.0651420486    -2.0647165074    -6.3536064396
   64      C      -2.8337204434     2.1138078808    -2.7185596834
   65      H      -2.2654240157     1.9941032505    -1.7954772742
   66      H      -3.6762389988     2.7695830431    -2.4892935256
   67      C      -2.4125332314    -2.9521120798    -3.1477266848
   68      H      -1.3365483176    -2.7821893529    -3.1033267087
   69      H      -2.5927541230    -3.6564039808    -3.9623810236
   70      C      -1.9533137909     2.7665208467    -3.7842074967
   71      H      -1.0821292534     2.1527769545    -4.0116422953
   72      H      -1.5943912326     3.7344825215    -3.4359990250
   73      H      -2.5079001069     2.9245929801    -4.7099981066
   74      C      -2.8884924676    -3.5661728522    -1.8292892073
   75      H      -2.6957382262    -2.9008942737    -0.9887594374
   76      H      -2.3598606372    -4.4999828180    -1.6413104585
   77      H      -3.9571884636    -3.7813745288    -1.8568113668
   78      C       2.7372264960    -0.4926259367     0.0532352313
   79      C       3.5162347745     0.6553517283     0.2311632629
   80      C       4.7345231256     0.6004764110     0.9102662924
   81      H       5.3027898914     1.5151080738     1.0299824928
   82      C       5.1968851536    -0.6060114533     1.4177408185
   83      O       6.3612665905    -0.7591156852     2.0889446780
   84      C       4.4334107168    -1.7563426510     1.2400700844
   85      H       4.7997551257    -2.6981446046     1.6349759462
   86      C       3.2202354476    -1.7077506353     0.5705466121
   87      C       7.1559608854     0.3796620591     2.3123539897
   88      H       8.0277033142     0.0470066183     2.8720672285
   89      H       7.4961804075     0.8374297250     1.3782887956
   90      H       6.6333817910     1.1400752018     2.9009427623
   91      C       3.0330867905     1.9976471342    -0.2576486255
   92      H       2.4789342453     1.8815570394    -1.1918841752
   93      H       3.8913213535     2.6337536978    -0.4906892261
   94      C       2.4577142640    -2.9940043841     0.3697273299
   95      H       1.3827553481    -2.8066435519     0.4213011896
   96      H       2.6861164102    -3.6834570885     1.1867396885
   97      C       2.7849337687    -3.6694330298    -0.9610668706
   98      H       2.5168195719    -3.0324515985    -1.8040659994
   99      H       3.8501225233    -3.8920423961    -1.0378634468
  100      H       2.2380075173    -4.6077798984    -1.0670234228
  101      C       2.1452156416     2.7051324579     0.7642257596
  102      H       1.2480371426     2.1226370650     0.9747436382
  103      H       2.6728432406     2.8565441560     1.7070613840
  104      H       1.8275985242     3.6819425350     0.3961594317
 ----------------------------------------------------------------

   17   -2280.6462796378      9.44E-09 Convergence criterion met
 Total energy in the final basis set = -2280.64627964
 Final energy is   -2280.64627963784
 **  OPTIMIZATION CONVERGED  **

                    Orbital Energies (a.u.)
 --------------------------------------------------------------

 Alpha MOs
 -- Occupied --
-19.607 -19.518 -10.586 -10.521 -10.507 -10.498 -10.497 -10.492
-10.490 -10.487 -10.478 -10.455 -10.455 -10.452 -10.452 -10.452
-10.451 -10.451 -10.451 -10.450 -10.450 -10.450 -10.450 -10.450
-10.450 -10.449 -10.449 -10.449 -10.449 -10.448 -10.448 -10.443
-10.443 -10.442 -10.442 -10.439 -10.439 -10.438 -10.438 -10.437
-10.437 -10.436 -10.435 -10.432 -10.429 -10.423 -10.421 -10.421
-10.420 -10.418 -10.417 -10.411 -10.410 -10.410 -10.410 -10.402
 -6.911  -6.903  -1.266  -1.173  -1.009  -1.003  -1.002  -0.947
 -0.944  -0.942  -0.928  -0.922  -0.922  -0.910  -0.892  -0.884
 -0.876  -0.855  -0.854  -0.842  -0.840  -0.838  -0.836  -0.835
 -0.821  -0.810  -0.805  -0.799  -0.799  -0.790  -0.788  -0.762
 -0.745  -0.731  -0.721  -0.717  -0.715  -0.707  -0.700  -0.695
 -0.692  -0.676  -0.666  -0.666  -0.664  -0.651  -0.640  -0.632
 -0.631  -0.630  -0.619  -0.611  -0.597  -0.596  -0.582  -0.580
 -0.576  -0.573  -0.571  -0.563  -0.562  -0.558  -0.551  -0.535
 -0.530  -0.527  -0.525  -0.525  -0.519  -0.514  -0.514  -0.507
 -0.502  -0.498  -0.494  -0.493  -0.490  -0.489  -0.487  -0.481
 -0.480  -0.478  -0.477  -0.474  -0.474  -0.473  -0.471  -0.470
 -0.467  -0.466  -0.460  -0.456  -0.453  -0.450  -0.449  -0.443
 -0.442  -0.440  -0.430  -0.427  -0.425  -0.424  -0.421  -0.419
 -0.417  -0.413  -0.406  -0.405  -0.403  -0.402  -0.400  -0.397
 -0.392  -0.390  -0.387  -0.387  -0.386  -0.384  -0.381  -0.379
 -0.376  -0.370  -0.362  -0.361  -0.359  -0.350  -0.348  -0.336
 -0.331  -0.328  -0.323  -0.311  -0.304  -0.304  -0.289  -0.287
 -0.274  -0.265  -0.256  -0.245  -0.243  -0.239  -0.155

 Beta MOs
 -- Occupied --
-19.602 -19.518 -10.582 -10.521 -10.506 -10.498 -10.492 -10.491
-10.488 -10.487 -10.478 -10.456 -10.455 -10.452 -10.452 -10.452
-10.451 -10.451 -10.451 -10.451 -10.451 -10.450 -10.449 -10.449
-10.449 -10.449 -10.448 -10.448 -10.448 -10.447 -10.447 -10.443
-10.442 -10.441 -10.441 -10.439 -10.439 -10.438 -10.437 -10.437
-10.437 -10.436 -10.436 -10.431 -10.429 -10.423 -10.421 -10.421
-10.420 -10.417 -10.417 -10.410 -10.410 -10.410 -10.409 -10.402
 -6.908  -6.901  -1.254  -1.173  -1.002  -1.002  -0.999  -0.946
 -0.943  -0.941  -0.926  -0.921  -0.921  -0.901  -0.890  -0.883
 -0.876  -0.854  -0.853  -0.840  -0.839  -0.835  -0.835  -0.834
 -0.812  -0.809  -0.802  -0.798  -0.797  -0.790  -0.786  -0.762
 -0.741  -0.727  -0.719  -0.715  -0.713  -0.706  -0.699  -0.692
 -0.691  -0.676  -0.666  -0.663  -0.661  -0.649  -0.639  -0.631
 -0.631  -0.627  -0.618  -0.607  -0.592  -0.580  -0.580  -0.575
 -0.574  -0.572  -0.570  -0.562  -0.561  -0.555  -0.550  -0.533
 -0.528  -0.525  -0.525  -0.524  -0.517  -0.513  -0.513  -0.504
 -0.499  -0.494  -0.493  -0.490  -0.489  -0.488  -0.485  -0.479
 -0.479  -0.476  -0.475  -0.473  -0.473  -0.472  -0.470  -0.467
 -0.465  -0.464  -0.458  -0.452  -0.451  -0.449  -0.446  -0.441
 -0.441  -0.435  -0.429  -0.426  -0.424  -0.423  -0.419  -0.415
 -0.415  -0.411  -0.405  -0.403  -0.401  -0.400  -0.396  -0.391
 -0.390  -0.386  -0.384  -0.384  -0.384  -0.381  -0.379  -0.377
 -0.373  -0.370  -0.359  -0.355  -0.354  -0.348  -0.346  -0.335
 -0.323  -0.322  -0.320  -0.304  -0.300  -0.285  -0.285  -0.265
 -0.264  -0.248  -0.242  -0.238  -0.236

          Ground-State Mulliken Net Atomic Charges

     Atom                 Charge (a.u.)    Spin (a.u.)
  --------------------------------------------------------
      1 C                    -0.143981       0.075760
      2 C                    -0.412250      -0.064174
      3 H                     0.233314       0.002657
      4 C                     0.086783       0.105771
      5 C                     0.057595       0.018112
      6 C                    -0.406989       0.009783
      7 H                     0.207622      -0.002715
      8 C                    -0.128162       0.010115
      9 C                     0.181285      -0.059247
     10 C                    -0.408630       0.085816
     11 H                     0.238921      -0.005015
     12 C                    -0.077171       0.022323
     13 C                     0.228090      -0.035794
     14 C                     0.181629      -0.038409
     15 C                    -0.400572       0.060687
     16 H                     0.227309      -0.003561
     17 C                    -0.223972      -0.052786
     18 H                     0.242592       0.002536
     19 C                    -0.360553       0.077413
     20 H                     0.237639      -0.004551
     21 C                    -0.227718      -0.041269
     22 H                     0.240446       0.002046
     23 C                    -0.355408       0.056872
     24 H                     0.237792      -0.003292
     25 B                     0.507982       0.366188
     26 C                    -0.127052       0.008922
     27 C                    -0.405977       0.009605
     28 H                     0.206828      -0.003190
     29 C                     0.058024       0.018423
     30 C                     0.087260       0.104360
     31 C                    -0.411048      -0.064165
     32 H                     0.233786       0.002649
     33 C                    -0.146212       0.075587
     34 C                     0.182028      -0.037974
     35 C                    -0.402001       0.060068
     36 H                     0.226194      -0.003530
     37 C                    -0.077133       0.021952
     38 C                     0.227358      -0.035312
     39 C                     0.182219      -0.058389
     40 C                    -0.410128       0.084471
     41 H                     0.238603      -0.004938
     42 C                    -0.227289      -0.040752
     43 H                     0.240263       0.002020
     44 C                    -0.354929       0.056057
     45 H                     0.237988      -0.003244
     46 C                    -0.223514      -0.051905
     47 H                     0.242469       0.002495
     48 C                    -0.360450       0.075928
     49 H                     0.237832      -0.004462
     50 B                     0.541214       0.263690
     51 C                    -0.126234       0.512669
     52 C                     0.088773      -0.106992
     53 C                    -0.355915       0.140576
     54 H                     0.286185      -0.008529
     55 C                     0.469110       0.211838
     56 O                    -0.389709       0.147931
     57 C                    -0.413085       0.038978
     58 H                     0.292129      -0.003574
     59 C                     0.098558       0.005590
     60 C                    -0.448899      -0.014435
     61 H                     0.285943       0.000007
     62 H                     0.259245       0.009526
     63 H                     0.259482       0.009571
     64 C                    -0.549548       0.007810
     65 H                     0.286460      -0.003047
     66 H                     0.251700       0.000003
     67 C                    -0.553676       0.000162
     68 H                     0.294190      -0.001542
     69 H                     0.252916       0.001353
     70 C                    -0.662572       0.000102
     71 H                     0.258338      -0.000476
     72 H                     0.241897      -0.000261
     73 H                     0.219091      -0.000193
     74 C                    -0.662018       0.005274
     75 H                     0.261493      -0.000780
     76 H                     0.244694       0.000780
     77 H                     0.219062      -0.000418
     78 C                    -0.194751      -0.026789
     79 C                     0.061651       0.005274
     80 C                    -0.444682      -0.001834
     81 H                     0.239395       0.000364
     82 C                     0.384095       0.002233
     83 O                    -0.469902       0.000327
     84 C                    -0.400371      -0.001976
     85 H                     0.226111       0.000400
     86 C                     0.059429       0.005071
     87 C                    -0.421689      -0.000048
     88 H                     0.246916       0.000003
     89 H                     0.213871       0.000039
     90 H                     0.214035       0.000032
     91 C                    -0.542879       0.002560
     92 H                     0.255558      -0.001748
     93 H                     0.225749       0.000295
     94 C                    -0.543598       0.002448
     95 H                     0.254416      -0.001762
     96 H                     0.228690       0.000306
     97 C                    -0.658598       0.000189
     98 H                     0.245728      -0.000480
     99 H                     0.216306      -0.000079
    100 H                     0.216489      -0.000011
    101 C                    -0.657376       0.000170
    102 H                     0.246181      -0.000443
    103 H                     0.213846      -0.000085
    104 H                     0.217845      -0.000014
  --------------------------------------------------------
  Sum of atomic charges =    -0.000000

                    Cartesian Multipole Moments
 -----------------------------------------------------------------
    Charge (ESU x 10^10)
                -0.0000
    Dipole Moment (Debye)
         X     -15.5007      Y      -0.9045      Z      -9.5553
       Tot      18.2316
    Quadrupole Moments (Debye-Ang)
        XX    -236.5114     XY      30.8553     YY    -330.3627
        XZ      82.3698     YZ      19.6950     ZZ    -276.2908

 Total job time:  46143.04s(wall), 134205.90s(cpu)
        *  Thank you very much for using Q-Chem.  Have a nice day.  *
