 Q-Chem 5.0, Q-Chem, Inc., Pleasanton, CA (2017)
 Q-Chem 5.0.1 for Intel X86 EM64T Linux

User input:
--------------------------------------------------------------
$rem
threads 8
jobtype opt
method PBEh-3c
basis def2-mSVP
mem_static      1024
mem_total       8000
sym_ignore      true
unrestricted true
scf_algorithm   diis
scf_max_cycles  250
solvent_method  pcm
geom_opt_tol_energy 25
geom_opt_tol_gradient 75
$end

$pcm
theory  iefpcm
$end

$solvent
dielectric      1.0001
$end

$molecule
read uincoords.mol
$end

--------------------------------------------------------------

   63   -2280.6170877070      9.32E-09 Convergence criterion met
 Total energy in the final basis set = -2280.61708771
   23   -2280.6284345438      8.17E-09 Convergence criterion met
 Total energy in the final basis set = -2280.62843454
   21   -2280.6299386966      7.77E-09 Convergence criterion met
 Total energy in the final basis set = -2280.62993870
   22   -2280.6303990598      9.73E-09 Convergence criterion met
 Total energy in the final basis set = -2280.63039906
   18   -2280.6308124146      9.10E-09 Convergence criterion met
 Total energy in the final basis set = -2280.63081241
   16   -2280.6309090770      9.96E-09 Convergence criterion met
 Total energy in the final basis set = -2280.63090908
   17   -2280.6308169922      9.11E-09 Convergence criterion met
 Total energy in the final basis set = -2280.63081699
   16   -2280.6308750823      9.36E-09 Convergence criterion met
 Total energy in the final basis set = -2280.63087508
   15   -2280.6308855332      7.15E-09 Convergence criterion met
 Total energy in the final basis set = -2280.63088553
   17   -2280.6308873500      6.32E-09 Convergence criterion met
 Total energy in the final basis set = -2280.63088735
   13   -2280.6308809097      7.67E-09 Convergence criterion met
 Total energy in the final basis set = -2280.63088091
   12   -2280.6308813347      8.58E-09 Convergence criterion met
 Total energy in the final basis set = -2280.63088133

             Standard Nuclear Orientation (Angstroms)
    I     Atom           X                Y                Z
 ----------------------------------------------------------------
    1      C       0.0643210507    -0.4167406684     0.0819989577
    2      C       0.0615972944    -0.4006685920     1.4946199245
    3      H       1.0092205899    -0.3967302304     2.0215425900
    4      C      -1.1198000863    -0.3883339477     2.1885699514
    5      C      -2.3811023989    -0.3896574131     1.4617392610
    6      C      -2.4022278671    -0.4008861099     0.0922295243
    7      H      -3.3455034261    -0.4005596143    -0.4427654276
    8      C      -1.2037093995    -0.4105721668    -0.6365112079
    9      C      -1.4390952123    -0.3715010579     3.6056687296
   10      C      -0.7137059340    -0.3623966102     4.7727013044
   11      H       0.3685861666    -0.3675363356     4.7713133589
   12      C      -2.8492191002    -0.3642932247     3.6965117613
   13      C      -3.5650482341    -0.3482882505     4.8895644570
   14      C      -3.4563709578    -0.3749562073     2.4225373184
   15      C      -4.8294976000    -0.3691848642     2.3336795648
   16      H      -5.3390076399    -0.3762177353     1.3782952344
   17      C      -1.4139965993    -0.3460543255     5.9978864192
   18      H      -0.8426412867    -0.3387798322     6.9166758374
   19      C      -2.7898673081    -0.3390110673     6.0723924631
   20      H      -3.2768735029    -0.3263451021     7.0394475968
   21      C      -5.5740639277    -0.3534361733     3.5291781452
   22      H      -6.6545602729    -0.3489189320     3.4676352839
   23      C      -4.9762593318    -0.3431658451     4.7715935103
   24      H      -5.5925259450    -0.3308907788     5.6619926660
   25      B      -1.2539992410    -0.4064336597    -2.1677922982
   26      C       0.0763233816    -0.4205280238    -2.9251909026
   27      C       0.0719912847    -0.4213475720    -4.3273918788
   28      H      -0.8742740424    -0.3962504435    -4.8559390353
   29      C       1.2501510023    -0.4601578768    -5.0230602412
   30      C       2.5277747241    -0.5035201390    -4.3268271245
   31      C       2.5522579539    -0.4962682293    -2.9580522764
   32      H       3.4945580798    -0.5317590683    -2.4236156692
   33      C       1.3493862843    -0.4497259801    -2.2190811319
   34      C       1.5093807728    -0.4786567015    -6.4422235801
   35      C       0.7208328943    -0.4571792453    -7.5703094539
   36      H      -0.3591260006    -0.4119489211    -7.5093975508
   37      C       2.9110887969    -0.5372376027    -6.5890031297
   38      C       3.5556780220    -0.5780087553    -7.8232899963
   39      C       3.5690618081    -0.5547147206    -5.3396141686
   40      C       4.9422687692    -0.6167811853    -5.3329371459
   41      H       5.5067747321    -0.6362499398    -4.4098899537
   42      C       1.3516259967    -0.4958213507    -8.8293776837
   43      H       0.7355225689    -0.4788824095    -9.7190481078
   44      C       2.7218712654    -0.5551507959    -8.9672733338
   45      H       3.1613823021    -0.5843786294    -9.9567090058
   46      C       5.6217165959    -0.6581898895    -6.5692215141
   47      H       6.7026023865    -0.7074255456    -6.5609503760
   48      C       4.9674457176    -0.6402453890    -7.7815479078
   49      H       5.5359984183    -0.6752303511    -8.7026344566
   50      B       1.3915240095    -0.4413429088    -0.6867176076
   51      C      -2.6286534181    -0.3998845028    -2.9480706283
   52      C      -3.3387123223     0.7948492858    -3.1662646998
   53      C      -4.5378464797     0.7899275089    -3.8595273240
   54      H      -5.0779568215     1.7156518403    -4.0240164061
   55      C      -5.0676618059    -0.3947691204    -4.3594777677
   56      O      -6.2412515742    -0.2934323173    -5.0208225594
   57      C      -4.3788812797    -1.5805555099    -4.1558720202
   58      H      -4.7612888368    -2.5231518665    -4.5295796466
   59      C      -3.1721025436    -1.5842032755    -3.4568726572
   60      C      -6.8184632650    -1.4612922181    -5.5386721672
   61      H      -7.7461231090    -1.1626673469    -6.0229006327
   62      H      -7.0546003512    -2.1915730557    -4.7574520224
   63      H      -6.1800325153    -1.9476004050    -6.2838507840
   64      C      -2.7875667063     2.1223621025    -2.7150167384
   65      H      -2.1868298235     2.0003784877    -1.8107901207
   66      H      -3.6124112139     2.7859679495    -2.4426382787
   67      C      -2.5098322867    -2.9181567078    -3.2195292758
   68      H      -1.4313667408    -2.7939594487    -3.1014100701
   69      H      -2.6448186250    -3.5549204063    -4.0982763368
   70      C      -1.9429021884     2.7878119203    -3.7992180650
   71      H      -1.0788025609     2.1754457010    -4.0580681817
   72      H      -1.5733347090     3.7594118566    -3.4691736660
   73      H      -2.5242880626     2.9401752787    -4.7092486643
   74      C      -3.0717126390    -3.6282517237    -1.9901466155
   75      H      -2.9057873989    -3.0390053196    -1.0880050183
   76      H      -2.5968592178    -4.5993777552    -1.8449599620
   77      H      -4.1460561407    -3.7909091190    -2.0856789187
   78      C       2.7712386571    -0.4668735432     0.0714221104
   79      C       3.5325009567     0.6966161445     0.2167394032
   80      C       4.7522201644     0.6739278736     0.8923922961
   81      H       5.3074815422     1.5990283021     0.9877506143
   82      C       5.2319855251    -0.5129977086     1.4275997197
   83      O       6.3985541348    -0.6354428480     2.0972238692
   84      C       4.4843565578    -1.6773354808     1.2818805930
   85      H       4.8682598206    -2.6012115084     1.6998844762
   86      C       3.2696080503    -1.6629664933     0.6173550921
   87      C       7.1752654694     0.5134659979     2.2972578105
   88      H       8.0502347241     0.2037894589     2.8652929215
   89      H       7.5136264117     0.9578743674     1.3550971728
   90      H       6.6435628825     1.2811691154     2.8694732038
   91      C       3.0279949847     2.0192514263    -0.3029033913
   92      H       2.4892134260     1.8789864104    -1.2431599215
   93      H       3.8760090251     2.6678383050    -0.5385773958
   94      C       2.5230532051    -2.9631994434     0.4503597003
   95      H       1.4454340344    -2.7952621839     0.5191986329
   96      H       2.7752868914    -3.6341341001     1.2754719934
   97      C       2.8373402040    -3.6578935765    -0.8730310664
   98      H       2.5354931663    -3.0486129818    -1.7250776121
   99      H       3.9055651292    -3.8550148051    -0.9688854715
  100      H       2.3117805142    -4.6108583449    -0.9477180165
  101      C       2.1142757808     2.7281598554     0.6943047248
  102      H       1.2202628323     2.1391209270     0.9001511266
  103      H       2.6241853438     2.8974615489     1.6433995139
  104      H       1.7897813447     3.6956690637     0.3090366906
 ----------------------------------------------------------------

   13   -2280.6308814452      5.53E-09 Convergence criterion met
 Total energy in the final basis set = -2280.63088145
 Final energy is   -2280.63088144524
 **  OPTIMIZATION CONVERGED  **

                    Orbital Energies (a.u.)
 --------------------------------------------------------------

 Alpha MOs
 -- Occupied --
-19.519 -19.519 -10.494 -10.493 -10.486 -10.485 -10.474 -10.474
-10.472 -10.472 -10.467 -10.467 -10.465 -10.465 -10.465 -10.465
-10.465 -10.465 -10.465 -10.465 -10.464 -10.464 -10.463 -10.463
-10.461 -10.461 -10.461 -10.461 -10.458 -10.458 -10.452 -10.451
-10.449 -10.449 -10.445 -10.445 -10.442 -10.441 -10.441 -10.440
-10.440 -10.439 -10.427 -10.426 -10.426 -10.426 -10.425 -10.425
-10.421 -10.421 -10.415 -10.414 -10.413 -10.412 -10.407 -10.406
 -6.917  -6.916  -1.176  -1.176  -1.021  -1.021  -0.965  -0.962
 -0.946  -0.946  -0.936  -0.936  -0.911  -0.902  -0.881  -0.879
 -0.864  -0.860  -0.857  -0.855  -0.851  -0.850  -0.826  -0.818
 -0.815  -0.813  -0.812  -0.807  -0.794  -0.793  -0.769  -0.767
 -0.737  -0.735  -0.733  -0.723  -0.704  -0.703  -0.697  -0.695
 -0.692  -0.684  -0.682  -0.671  -0.653  -0.646  -0.642  -0.641
 -0.623  -0.622  -0.599  -0.596  -0.592  -0.591  -0.585  -0.579
 -0.578  -0.577  -0.577  -0.555  -0.555  -0.546  -0.541  -0.534
 -0.530  -0.530  -0.529  -0.524  -0.513  -0.510  -0.505  -0.500
 -0.498  -0.497  -0.495  -0.495  -0.493  -0.492  -0.491  -0.490
 -0.486  -0.484  -0.482  -0.477  -0.476  -0.476  -0.474  -0.467
 -0.462  -0.456  -0.454  -0.453  -0.449  -0.448  -0.443  -0.437
 -0.437  -0.433  -0.431  -0.428  -0.427  -0.423  -0.422  -0.414
 -0.407  -0.406  -0.403  -0.402  -0.402  -0.400  -0.400  -0.398
 -0.397  -0.394  -0.392  -0.391  -0.386  -0.382  -0.381  -0.378
 -0.373  -0.373  -0.357  -0.356  -0.354  -0.353  -0.348  -0.347
 -0.336  -0.331  -0.329  -0.323  -0.303  -0.301  -0.292  -0.270
 -0.269  -0.267  -0.266  -0.259  -0.243  -0.241  -0.171

 Beta MOs
 -- Occupied --
-19.519 -19.519 -10.494 -10.493 -10.486 -10.485 -10.470 -10.470
-10.469 -10.468 -10.468 -10.468 -10.467 -10.467 -10.465 -10.465
-10.463 -10.463 -10.463 -10.463 -10.463 -10.463 -10.462 -10.462
-10.462 -10.462 -10.462 -10.462 -10.456 -10.456 -10.454 -10.453
-10.451 -10.451 -10.441 -10.441 -10.441 -10.440 -10.439 -10.439
-10.439 -10.438 -10.427 -10.426 -10.426 -10.426 -10.425 -10.425
-10.421 -10.421 -10.415 -10.414 -10.413 -10.412 -10.408 -10.406
 -6.915  -6.914  -1.176  -1.176  -1.018  -1.018  -0.960  -0.957
 -0.946  -0.945  -0.935  -0.935  -0.906  -0.898  -0.880  -0.879
 -0.863  -0.859  -0.856  -0.854  -0.849  -0.848  -0.818  -0.816
 -0.813  -0.812  -0.811  -0.796  -0.793  -0.793  -0.768  -0.767
 -0.734  -0.731  -0.730  -0.720  -0.704  -0.703  -0.697  -0.695
 -0.690  -0.679  -0.679  -0.666  -0.651  -0.644  -0.641  -0.641
 -0.622  -0.622  -0.597  -0.594  -0.589  -0.588  -0.584  -0.578
 -0.577  -0.577  -0.575  -0.555  -0.554  -0.543  -0.539  -0.532
 -0.530  -0.530  -0.529  -0.522  -0.512  -0.509  -0.503  -0.500
 -0.497  -0.497  -0.494  -0.494  -0.493  -0.491  -0.484  -0.483
 -0.482  -0.482  -0.481  -0.477  -0.476  -0.475  -0.474  -0.467
 -0.460  -0.454  -0.453  -0.452  -0.448  -0.447  -0.441  -0.435
 -0.431  -0.428  -0.426  -0.422  -0.422  -0.420  -0.416  -0.413
 -0.407  -0.406  -0.403  -0.402  -0.401  -0.397  -0.396  -0.395
 -0.395  -0.394  -0.391  -0.390  -0.384  -0.381  -0.375  -0.374
 -0.372  -0.361  -0.355  -0.355  -0.349  -0.347  -0.347  -0.336
 -0.333  -0.329  -0.321  -0.317  -0.296  -0.295  -0.267  -0.266
 -0.260  -0.254  -0.249  -0.243  -0.239

          Ground-State Mulliken Net Atomic Charges

     Atom                 Charge (a.u.)    Spin (a.u.)
  --------------------------------------------------------
      1 C                    -0.122857       0.237179
      2 C                    -0.398119      -0.142573
      3 H                     0.242911       0.005459
      4 C                     0.118621       0.225710
      5 C                     0.091434       0.242528
      6 C                    -0.389574      -0.147427
      7 H                     0.241104       0.005750
      8 C                    -0.121760       0.208363
      9 C                     0.200365      -0.112286
     10 C                    -0.383232       0.131147
     11 H                     0.224015      -0.007792
     12 C                    -0.062287       0.137641
     13 C                     0.252630      -0.091785
     14 C                     0.197498      -0.114986
     15 C                    -0.372326       0.141655
     16 H                     0.224791      -0.008425
     17 C                    -0.202222      -0.094777
     18 H                     0.228208       0.004689
     19 C                    -0.338128       0.137041
     20 H                     0.221547      -0.008057
     21 C                    -0.205308      -0.098857
     22 H                     0.228932       0.004822
     23 C                    -0.333089       0.150654
     24 H                     0.221656      -0.008876
     25 B                     0.564780       0.213603
     26 C                    -0.120977       0.213448
     27 C                    -0.388821      -0.150124
     28 H                     0.242854       0.005813
     29 C                     0.091622       0.246897
     30 C                     0.119130       0.230173
     31 C                    -0.396527      -0.146000
     32 H                     0.244023       0.005603
     33 C                    -0.124031       0.242705
     34 C                     0.198000      -0.116538
     35 C                    -0.373566       0.143989
     36 H                     0.224136      -0.008577
     37 C                    -0.062431       0.139756
     38 C                     0.252038      -0.093327
     39 C                     0.201488      -0.114044
     40 C                    -0.384602       0.133407
     41 H                     0.223542      -0.007933
     42 C                    -0.204688      -0.100266
     43 H                     0.228696       0.004891
     44 C                    -0.332777       0.152686
     45 H                     0.221596      -0.008993
     46 C                    -0.201840      -0.096178
     47 H                     0.227922       0.004759
     48 C                    -0.338234       0.139004
     49 H                     0.221548      -0.008171
     50 B                     0.564923       0.200137
     51 C                    -0.220262      -0.021188
     52 C                     0.073960       0.002960
     53 C                    -0.373627      -0.000998
     54 H                     0.216487       0.000325
     55 C                     0.399425       0.000784
     56 O                    -0.454789       0.000093
     57 C                    -0.423965      -0.000864
     58 H                     0.219137       0.000290
     59 C                     0.072438       0.002968
     60 C                    -0.404552      -0.000017
     61 H                     0.237357       0.000004
     62 H                     0.202326       0.000009
     63 H                     0.201940       0.000015
     64 C                    -0.542768       0.003244
     65 H                     0.251491      -0.001913
     66 H                     0.225897       0.000258
     67 C                    -0.542891       0.003682
     68 H                     0.255383      -0.002170
     69 H                     0.221884       0.000223
     70 C                    -0.643493      -0.000290
     71 H                     0.238190      -0.000130
     72 H                     0.215368      -0.000006
     73 H                     0.215920       0.000076
     74 C                    -0.639890      -0.000330
     75 H                     0.237640      -0.000099
     76 H                     0.215751      -0.000002
     77 H                     0.211312       0.000092
     78 C                    -0.210980      -0.020576
     79 C                     0.077716       0.003373
     80 C                    -0.429584      -0.001071
     81 H                     0.218816       0.000297
     82 C                     0.399687       0.001161
     83 O                    -0.454453       0.000151
     84 C                    -0.379584      -0.001206
     85 H                     0.216596       0.000338
     86 C                     0.076106       0.003311
     87 C                    -0.404554      -0.000024
     88 H                     0.237166       0.000003
     89 H                     0.201646       0.000022
     90 H                     0.202437       0.000015
     91 C                    -0.541832       0.003315
     92 H                     0.252547      -0.001774
     93 H                     0.220960       0.000309
     94 C                    -0.541584       0.003019
     95 H                     0.250054      -0.001671
     96 H                     0.225503       0.000330
     97 C                    -0.645910       0.000530
     98 H                     0.241566      -0.000548
     99 H                     0.216391       0.000135
    100 H                     0.215355      -0.000037
    101 C                    -0.644125       0.000471
    102 H                     0.243049      -0.000501
    103 H                     0.212989       0.000133
    104 H                     0.215736      -0.000038
  --------------------------------------------------------
  Sum of atomic charges =    -0.000000

                    Cartesian Multipole Moments
 -----------------------------------------------------------------
    Charge (ESU x 10^10)
                -0.0000
    Dipole Moment (Debye)
         X       0.0262      Y      -0.0670      Z      -0.3655
       Tot       0.3725
    Quadrupole Moments (Debye-Ang)
        XX    -293.8591     XY      16.3052     YY    -339.6667
        XZ      -9.7128     YZ      10.6810     ZZ    -281.3433

 Total job time:  46412.19s(wall), 124916.78s(cpu)
        *  Thank you very much for using Q-Chem.  Have a nice day.  *
