 Q-Chem 5.0, Q-Chem, Inc., Pleasanton, CA (2017)
 Q-Chem 5.0.1 for Intel X86 EM64T Linux

User input:
--------------------------------------------------------------
$rem
threads 8
jobtype opt
method PBEh-3c
basis def2-mSVP
mem_static      1024
mem_total       8000
sym_ignore      true
unrestricted true
scf_algorithm	diis
scf_max_cycles	250
solvent_method  pcm
geom_opt_tol_energy 25
geom_opt_tol_gradient 75
$end

$pcm
theory  iefpcm
$end

$solvent
dielectric      2.38
$end

$molecule
read utLEincoords.mol
$end
--------------------------------------------------------------

   30   -2280.6442407855      7.69E-09 Convergence criterion met
 Total energy in the final basis set = -2280.64424079
   17   -2280.6489308188      8.90E-09 Convergence criterion met
 Total energy in the final basis set = -2280.64893082
   17   -2280.6501577184      6.83E-09 Convergence criterion met
 Total energy in the final basis set = -2280.65015772
   17   -2280.6500517279      6.97E-09 Convergence criterion met
 Total energy in the final basis set = -2280.65005173
   15   -2280.6506201344      9.52E-09 Convergence criterion met
 Total energy in the final basis set = -2280.65062013
   14   -2280.6506429483      8.99E-09 Convergence criterion met
 Total energy in the final basis set = -2280.65064295
   15   -2280.6506991960      7.47E-09 Convergence criterion met
 Total energy in the final basis set = -2280.65069920
   15   -2280.6506312890      7.98E-09 Convergence criterion met
 Total energy in the final basis set = -2280.65063129
   14   -2280.6507024554      7.98E-09 Convergence criterion met
 Total energy in the final basis set = -2280.65070246
   14   -2280.6507027879      7.59E-09 Convergence criterion met
 Total energy in the final basis set = -2280.65070279
   14   -2280.6507054968      7.42E-09 Convergence criterion met
 Total energy in the final basis set = -2280.65070550
   14   -2280.6507076990      7.45E-09 Convergence criterion met
 Total energy in the final basis set = -2280.65070770
   13   -2280.6507096021      9.42E-09 Convergence criterion met
 Total energy in the final basis set = -2280.65070960

             Standard Nuclear Orientation (Angstroms)
    I     Atom           X                Y                Z
 ----------------------------------------------------------------
    1      C      -0.0092362327    -0.3555775946     0.0322759517
    2      C      -0.0036577663    -0.3694058964     1.4397631282
    3      H       0.9425467478    -0.4014262591     1.9683587677
    4      C      -1.1874085828    -0.3399361797     2.1398319358
    5      C      -1.4846428139    -0.3443261013     3.5743229770
    6      C      -0.7436021556    -0.3780957242     4.7261238901
    7      H       0.3385935133    -0.4108246281     4.7096976811
    8      C      -1.4252974036    -0.3701443374     5.9671058089
    9      H      -0.8390595865    -0.3970465417     6.8763631467
   10      C      -2.7975943886    -0.3302808435     6.0602146384
   11      H      -3.2721473056    -0.3259159222     7.0338370918
   12      C      -2.8884689556    -0.3038979957     3.6830588522
   13      C      -3.5873029948    -0.2954237022     4.8854915183
   14      C      -3.5037690548    -0.2738528725     2.4168851412
   15      C      -4.8720259786    -0.2321314587     2.3457229305
   16      H      -5.3955495152    -0.2064721727     1.3977705920
   17      C      -5.6083286979    -0.2224350762     3.5533899228
   18      H      -6.6889244359    -0.1897060180     3.5001504639
   19      C      -5.0001736252    -0.2529452299     4.7874334635
   20      H      -5.6057809602    -0.2440860704     5.6854336233
   21      C      -2.4226797909    -0.2969104113     1.4360265568
   22      C      -2.4477114358    -0.2866075155     0.0600243758
   23      H      -3.3946013216    -0.2597376715    -0.4685434821
   24      C      -1.2480259094    -0.3124536323    -0.6707334480
   25      B       1.3341287919    -0.3912390740    -0.7293116261
   26      B      -1.2989681096    -0.3014962835    -2.2206304643
   27      C       1.3222203180    -0.3453362647    -2.2670261714
   28      C       2.5230314940    -0.3710881705    -2.9695019644
   29      H       3.4593810805    -0.4250683723    -2.4259568953
   30      C       2.5276520795    -0.3325431696    -4.3505586840
   31      C       3.5731784567    -0.3468640484    -5.3190159694
   32      C       4.9601140716    -0.4011752447    -5.2773080520
   33      H       5.4983504714    -0.4440340658    -4.3396633544
   34      C       5.6602827030    -0.4027739614    -6.4919732305
   35      H       6.7413493503    -0.4456218698    -6.4655081544
   36      C       5.0285188333    -0.3536848437    -7.7247075035
   37      H       5.6203395096    -0.3588248082    -8.6315465106
   38      C       2.9382356981    -0.2968585925    -6.5855907933
   39      C       3.6165752309    -0.2989856719    -7.8035529085
   40      C       1.5216418406    -0.2509137142    -6.4729124672
   41      C       0.7584425095    -0.2025896166    -7.6374428822
   42      H      -0.3227395557    -0.1657603868    -7.6055933092
   43      C       1.4268457472    -0.2027786168    -8.8665845055
   44      H       0.8410937784    -0.1652982880    -9.7760646823
   45      C       2.8101677438    -0.2495245158    -8.9677685566
   46      H       3.2745703959    -0.2486476956    -9.9460687420
   47      C       1.2302017925    -0.2734498010    -5.0882952989
   48      C       0.0303727424    -0.2615411094    -4.3853015185
   49      H      -0.9098396478    -0.2295104553    -4.9253307309
   50      C       0.0286256030    -0.2979642182    -3.0018547292
   51      C       2.7039210260    -0.4997188831     0.0352213963
   52      C       3.5059282346     0.6252460490     0.2488006875
   53      C       4.7224373392     0.5164305472     0.9219480161
   54      H       5.3131241213     1.4119603507     1.0726151398
   55      C       5.1562099637    -0.7183476306     1.3862988525
   56      O       6.3168530872    -0.9222178315     2.0450716265
   57      C       4.3644786425    -1.8436436816     1.1744053280
   58      H       4.7099209190    -2.8058550071     1.5365821106
   59      C       3.1526229303    -1.7439380862     0.5107557286
   60      C       7.1485938210     0.1837408722     2.2913242006
   61      H       8.0171012533    -0.1931984592     2.8272006370
   62      H       7.4897476375     0.6593730275     1.3665419738
   63      H       6.6586121133     0.9406171247     2.9116757478
   64      C       3.0477837673     1.9934814522    -0.1887444809
   65      H       2.4813776828     1.9244991293    -1.1210836718
   66      H       3.9169107326     2.6175313288    -0.4124860341
   67      C       2.3600622435    -3.0036613146     0.2630237789
   68      H       1.2886003132    -2.7893808070     0.2767464636
   69      H       2.5344577618    -3.7090233890     1.0792820445
   70      C       2.1880050243     2.6856924015     0.8668725993
   71      H       1.2797337394     2.1186596104     1.0717089434
   72      H       1.8884010400     3.6805461354     0.5350601995
   73      H       2.7308290243     2.7932172729     1.8066496981
   74      C       2.7209863423    -3.6733252313    -1.0619838996
   75      H       2.5089057126    -3.0201066398    -1.9086547945
   76      H       3.7808324039    -3.9279704656    -1.0978314058
   77      H       2.1500431738    -4.5921351385    -1.2026368521
   78      C      -2.6736891276    -0.3142500763    -2.9956254373
   79      C      -3.1975239441    -1.5128726379    -3.4903339614
   80      C      -4.4073255864    -1.5369018924    -4.1834874824
   81      H      -4.7757479743    -2.4895096734    -4.5454896822
   82      C      -5.1183982178    -0.3645586850    -4.3935288265
   83      O      -6.2963174971    -0.2901639706    -5.0492531725
   84      C      -4.6073659308     0.8341562720    -3.9050946265
   85      H      -5.1639572637     1.7499981432    -4.0722876107
   86      C      -3.4050178704     0.8660453057    -3.2170584737
   87      C      -6.8611400595    -1.4769177280    -5.5497052602
   88      H      -7.7964297369    -1.1978791779    -6.0302883722
   89      H      -7.0792775368    -2.1984627795    -4.7562392562
   90      H      -6.2195326666    -1.9606521044    -6.2927548519
   91      C      -2.8743746796     2.2048775957    -2.7742888466
   92      H      -3.7072309823     2.8484368593    -2.4798735552
   93      H      -2.2503584913     2.0942589646    -1.8839941723
   94      C      -2.5133191785    -2.8327746673    -3.2364214908
   95      H      -1.4388043031    -2.6874137275    -3.1030440176
   96      H      -2.6220404788    -3.4767658715    -4.1133783686
   97      C      -2.0711962389     2.8946017785    -3.8752027077
   98      H      -1.2015139572     2.3015431172    -4.1590219674
   99      H      -2.6783740692     3.0410218961    -4.7693051475
  100      H      -1.7141290240     3.8714692487    -3.5470633030
  101      C      -3.0810092375    -3.5462822942    -2.0113083382
  102      H      -2.9520499537    -2.9432875135    -1.1120612122
  103      H      -4.1477480202    -3.7413772882    -2.1289367850
  104      H      -2.5812572113    -4.5016918121    -1.8468979802
 ----------------------------------------------------------------

   13   -2280.6507123778      9.35E-09 Convergence criterion met
 Total energy in the final basis set = -2280.65071238
 Final energy is   -2280.65071237781
 **  OPTIMIZATION CONVERGED  **

                    Orbital Energies (a.u.)
 --------------------------------------------------------------

 Alpha MOs
 -- Occupied --
-19.523 -19.523 -10.500 -10.499 -10.484 -10.484 -10.483 -10.483
-10.469 -10.468 -10.466 -10.465 -10.465 -10.465 -10.463 -10.462
-10.462 -10.461 -10.461 -10.460 -10.460 -10.460 -10.459 -10.459
-10.458 -10.458 -10.458 -10.458 -10.457 -10.456 -10.455 -10.451
-10.448 -10.448 -10.448 -10.447 -10.447 -10.446 -10.446 -10.445
-10.433 -10.433 -10.431 -10.431 -10.431 -10.430 -10.430 -10.429
-10.427 -10.427 -10.418 -10.417 -10.417 -10.417 -10.414 -10.413
 -6.934  -6.931  -1.180  -1.179  -1.026  -1.013  -0.967  -0.957
 -0.952  -0.951  -0.937  -0.930  -0.912  -0.899  -0.885  -0.885
 -0.871  -0.861  -0.861  -0.852  -0.851  -0.843  -0.825  -0.821
 -0.816  -0.816  -0.809  -0.804  -0.799  -0.798  -0.772  -0.770
 -0.742  -0.735  -0.725  -0.719  -0.708  -0.708  -0.701  -0.699
 -0.690  -0.686  -0.678  -0.668  -0.655  -0.646  -0.645  -0.642
 -0.627  -0.627  -0.601  -0.592  -0.591  -0.588  -0.583  -0.581
 -0.580  -0.575  -0.575  -0.560  -0.560  -0.544  -0.542  -0.535
 -0.531  -0.531  -0.528  -0.522  -0.519  -0.507  -0.504  -0.503
 -0.502  -0.500  -0.500  -0.497  -0.496  -0.492  -0.489  -0.486
 -0.484  -0.482  -0.480  -0.480  -0.478  -0.478  -0.475  -0.464
 -0.461  -0.457  -0.456  -0.456  -0.453  -0.450  -0.444  -0.442
 -0.439  -0.433  -0.432  -0.428  -0.427  -0.427  -0.425  -0.415
 -0.411  -0.410  -0.406  -0.406  -0.404  -0.400  -0.399  -0.399
 -0.395  -0.393  -0.393  -0.390  -0.389  -0.385  -0.383  -0.379
 -0.377  -0.376  -0.361  -0.361  -0.359  -0.355  -0.352  -0.350
 -0.339  -0.339  -0.336  -0.315  -0.310  -0.295  -0.291  -0.275
 -0.273  -0.272  -0.263  -0.256  -0.249  -0.247  -0.182

 Beta MOs
 -- Occupied --
-19.523 -19.523 -10.500 -10.499 -10.484 -10.484 -10.477 -10.476
-10.470 -10.469 -10.468 -10.465 -10.463 -10.462 -10.462 -10.462
-10.461 -10.461 -10.460 -10.460 -10.460 -10.460 -10.459 -10.459
-10.459 -10.458 -10.458 -10.458 -10.458 -10.456 -10.456 -10.448
-10.448 -10.447 -10.447 -10.446 -10.446 -10.445 -10.445 -10.443
-10.433 -10.432 -10.431 -10.431 -10.431 -10.430 -10.430 -10.429
-10.427 -10.427 -10.418 -10.417 -10.417 -10.417 -10.414 -10.413
 -6.933  -6.930  -1.180  -1.179  -1.018  -1.013  -0.959  -0.955
 -0.952  -0.951  -0.933  -0.930  -0.906  -0.898  -0.885  -0.885
 -0.868  -0.861  -0.860  -0.851  -0.848  -0.843  -0.819  -0.818
 -0.814  -0.813  -0.809  -0.798  -0.798  -0.794  -0.771  -0.770
 -0.733  -0.732  -0.724  -0.717  -0.708  -0.708  -0.700  -0.699
 -0.687  -0.680  -0.676  -0.665  -0.654  -0.644  -0.643  -0.641
 -0.627  -0.627  -0.598  -0.590  -0.589  -0.586  -0.582  -0.581
 -0.580  -0.574  -0.573  -0.559  -0.559  -0.542  -0.540  -0.533
 -0.531  -0.531  -0.527  -0.521  -0.516  -0.506  -0.503  -0.502
 -0.500  -0.500  -0.497  -0.496  -0.490  -0.489  -0.485  -0.483
 -0.481  -0.480  -0.479  -0.479  -0.478  -0.478  -0.475  -0.464
 -0.459  -0.456  -0.456  -0.453  -0.452  -0.449  -0.442  -0.437
 -0.433  -0.432  -0.428  -0.426  -0.426  -0.424  -0.414  -0.413
 -0.410  -0.409  -0.406  -0.404  -0.399  -0.398  -0.397  -0.395
 -0.393  -0.393  -0.392  -0.388  -0.387  -0.384  -0.379  -0.378
 -0.374  -0.364  -0.360  -0.360  -0.354  -0.353  -0.352  -0.338
 -0.337  -0.334  -0.326  -0.312  -0.296  -0.292  -0.273  -0.272
 -0.265  -0.260  -0.253  -0.248  -0.247

          Ground-State Mulliken Net Atomic Charges

     Atom                 Charge (a.u.)    Spin (a.u.)
  --------------------------------------------------------
      1 C                    -0.141984       0.012804
      2 C                    -0.401347      -0.002924
      3 H                     0.243983      -0.000300
      4 C                     0.097512       0.028325
      5 C                     0.191200      -0.018089
      6 C                    -0.393070       0.020901
      7 H                     0.237213      -0.001224
      8 C                    -0.218454      -0.014949
      9 H                     0.241543       0.000735
     10 C                    -0.345149       0.020591
     11 H                     0.236611      -0.001188
     12 C                    -0.064439       0.017765
     13 C                     0.237030      -0.013645
     14 C                     0.184150      -0.020433
     15 C                    -0.386704       0.023717
     16 H                     0.237350      -0.001387
     17 C                    -0.220197      -0.016155
     18 H                     0.241778       0.000783
     19 C                    -0.342811       0.023217
     20 H                     0.236341      -0.001347
     21 C                     0.090565       0.037879
     22 C                    -0.398559      -0.011708
     23 H                     0.240875       0.000172
     24 C                    -0.144399       0.019768
     25 B                     0.610401       0.159751
     26 B                     0.613214       0.158568
     27 C                    -0.139050       0.401313
     28 C                    -0.373666      -0.278742
     29 H                     0.254456       0.011451
     30 C                     0.083893       0.452736
     31 C                     0.198809      -0.210479
     32 C                    -0.383622       0.292636
     33 H                     0.237632      -0.017292
     34 C                    -0.216580      -0.200520
     35 H                     0.243226       0.009664
     36 C                    -0.349966       0.309756
     37 H                     0.238102      -0.018137
     38 C                    -0.068018       0.276802
     39 C                     0.242011      -0.195875
     40 C                     0.191123      -0.201000
     41 C                    -0.375181       0.310282
     42 H                     0.238713      -0.018426
     43 C                    -0.217128      -0.207725
     44 H                     0.244827       0.009843
     45 C                    -0.345306       0.340658
     46 H                     0.239454      -0.019940
     47 C                     0.076073       0.456114
     48 C                    -0.373900      -0.252283
     49 H                     0.253086       0.009986
     50 C                    -0.137241       0.335629
     51 C                    -0.220415      -0.017041
     52 C                     0.077438       0.003581
     53 C                    -0.439346      -0.000709
     54 H                     0.236266       0.000226
     55 C                     0.394073       0.001303
     56 O                    -0.462721       0.000253
     57 C                    -0.392401      -0.001208
     58 H                     0.227922       0.000284
     59 C                     0.073861       0.002659
     60 C                    -0.417919      -0.000036
     61 H                     0.246732       0.000002
     62 H                     0.211052       0.000025
     63 H                     0.212037       0.000023
     64 C                    -0.545604       0.004106
     65 H                     0.251001      -0.001700
     66 H                     0.229506       0.000196
     67 C                    -0.550996       0.001039
     68 H                     0.256972      -0.001067
     69 H                     0.234714       0.000062
     70 C                    -0.652028      -0.000014
     71 H                     0.244592      -0.000212
     72 H                     0.221772      -0.000003
     73 H                     0.216582       0.000053
     74 C                    -0.651693       0.000306
     75 H                     0.237427      -0.000482
     76 H                     0.219620       0.000098
     77 H                     0.221622      -0.000034
     78 C                    -0.221134      -0.016412
     79 C                     0.066498       0.002311
     80 C                    -0.434767      -0.000290
     81 H                     0.236263       0.000191
     82 C                     0.393924       0.000430
     83 O                    -0.463346       0.000070
     84 C                    -0.386154      -0.000650
     85 H                     0.227489       0.000251
     86 C                     0.071755       0.001916
     87 C                    -0.417741      -0.000014
     88 H                     0.246704       0.000002
     89 H                     0.212233       0.000006
     90 H                     0.211225       0.000009
     91 C                    -0.547741       0.001474
     92 H                     0.234289       0.000142
     93 H                     0.254090      -0.001240
     94 C                    -0.548544       0.004633
     95 H                     0.254925      -0.002243
     96 H                     0.230549       0.000066
     97 C                    -0.650432      -0.000507
     98 H                     0.234941       0.000065
     99 H                     0.219168       0.000007
    100 H                     0.222152       0.000003
    101 C                    -0.647803      -0.000110
    102 H                     0.240387      -0.000097
    103 H                     0.215396       0.000196
    104 H                     0.221211      -0.000000
  --------------------------------------------------------
  Sum of atomic charges =    -0.000000

                    Cartesian Multipole Moments
 -----------------------------------------------------------------
    Charge (ESU x 10^10)
                -0.0000
    Dipole Moment (Debye)
         X       1.0084      Y      -0.0434      Z      -1.7908
       Tot       2.0557
    Quadrupole Moments (Debye-Ang)
        XX    -287.3984     XY      17.9848     YY    -337.9021
        XZ      -6.3893     YZ      11.0588     ZZ    -275.8784

 Total job time:  30323.21s(wall), 89429.69s(cpu)
        *  Thank you very much for using Q-Chem.  Have a nice day.  *
