 Q-Chem 5.0, Q-Chem, Inc., Pleasanton, CA (2017)
 Q-Chem 5.0.1 for Intel X86 EM64T Linux

User input:
--------------------------------------------------------------
$rem
threads 8
jobtype opt
method PBEh-3c
basis def2-mSVP
mem_static      1024
mem_total       8000
sym_ignore      true
unrestricted true
scf_algorithm   diis
scf_max_cycles  250
solvent_method  pcm
geom_opt_tol_energy 25
geom_opt_tol_gradient 75
$end

$pcm
theory  iefpcm
$end

$solvent
dielectric      2.03
$end

$molecule
read utLEincoords.mol
$end

--------------------------------------------------------------

   30   -2280.6421325130      6.91E-09 Convergence criterion met
 Total energy in the final basis set = -2280.64213251
   17   -2280.6468227809      8.43E-09 Convergence criterion met
 Total energy in the final basis set = -2280.64682278
   17   -2280.6480584955      6.67E-09 Convergence criterion met
 Total energy in the final basis set = -2280.64805850
   17   -2280.6479431753      6.98E-09 Convergence criterion met
 Total energy in the final basis set = -2280.64794318
   15   -2280.6485190849      9.27E-09 Convergence criterion met
 Total energy in the final basis set = -2280.64851908
   14   -2280.6485410613      8.25E-09 Convergence criterion met
 Total energy in the final basis set = -2280.64854106
   15   -2280.6485988877      6.77E-09 Convergence criterion met
 Total energy in the final basis set = -2280.64859889
   15   -2280.6485281086      7.28E-09 Convergence criterion met
 Total energy in the final basis set = -2280.64852811
   14   -2280.6486036025      7.13E-09 Convergence criterion met
 Total energy in the final basis set = -2280.64860360
   13   -2280.6486032775      9.24E-09 Convergence criterion met
 Total energy in the final basis set = -2280.64860328
   13   -2280.6486047179      8.85E-09 Convergence criterion met
 Total energy in the final basis set = -2280.64860472
   13   -2280.6486060479      8.81E-09 Convergence criterion met
 Total energy in the final basis set = -2280.64860605
   13   -2280.6486093349      7.94E-09 Convergence criterion met
 Total energy in the final basis set = -2280.64860933

             Standard Nuclear Orientation (Angstroms)
    I     Atom           X                Y                Z
 ----------------------------------------------------------------
    1      C      -0.0092246637    -0.3566128769     0.0323678831
    2      C      -0.0036419148    -0.3706885839     1.4397715586
    3      H       0.9427785539    -0.4022208660     1.9680288282
    4      C      -1.1874214357    -0.3421776621     2.1397340556
    5      C      -1.4847550300    -0.3471243632     3.5741720401
    6      C      -0.7438530703    -0.3806688599     4.7259431292
    7      H       0.3383468071    -0.4127216323     4.7094984828
    8      C      -1.4255093138    -0.3734362810     5.9668387339
    9      H      -0.8393234469    -0.4001599584     6.8761223648
   10      C      -2.7977185105    -0.3344747864     6.0598788128
   11      H      -3.2722315034    -0.3306247562     7.0335152276
   12      C      -2.8885484883    -0.3076405346     3.6829197812
   13      C      -3.5874084932    -0.2998885126     4.8852498012
   14      C      -3.5037133318    -0.2776896264     2.4167469268
   15      C      -4.8718897655    -0.2368416946     2.3455782359
   16      H      -5.3953242336    -0.2112751629     1.3975924956
   17      C      -5.6082655105    -0.2279181195     3.5530929021
   18      H      -6.6888710126    -0.1958726349     3.4998350305
   19      C      -5.0002006367    -0.2583060859     4.7870501993
   20      H      -5.6059344490    -0.2500442060     5.6849585578
   21      C      -2.4226143920    -0.2997758254     1.4359245917
   22      C      -2.4476180321    -0.2889708512     0.0599824613
   23      H      -3.3942658286    -0.2624065809    -0.4690523740
   24      C      -1.2479190743    -0.3138842035    -0.6706386297
   25      B       1.3341195532    -0.3915342601    -0.7291838448
   26      B      -1.2988598202    -0.3020410426    -2.2204584329
   27      C       1.3222665702    -0.3465388967    -2.2669684462
   28      C       2.5229114227    -0.3734118573    -2.9692744837
   29      H       3.4589598703    -0.4277725669    -2.4252147054
   30      C       2.5276387207    -0.3354033100    -4.3504833747
   31      C       3.5729787643    -0.3508437323    -5.3187874628
   32      C       4.9599237766    -0.4063338366    -5.2770801248
   33      H       5.4980597136    -0.4494357739    -4.3394123271
   34      C       5.6600663837    -0.4088688418    -6.4915221177
   35      H       6.7410855684    -0.4526433180    -6.4650362856
   36      C       5.0284248778    -0.3596289201    -7.7242873668
   37      H       5.6204003882    -0.3655629380    -8.6310073648
   38      C       2.9382144340    -0.3006821111    -6.5854466094
   39      C       3.6166493866    -0.3037759320    -7.8033683289
   40      C       1.5217655929    -0.2535386620    -6.4728378595
   41      C       0.7587791944    -0.2049833789    -7.6374591192
   42      H      -0.3223556341    -0.1672200750    -7.6057192590
   43      C       1.4271711669    -0.2061313706    -8.8664576183
   44      H       0.8415230932    -0.1684600635    -9.7759870319
   45      C       2.8103844322    -0.2540633933    -8.9675278341
   46      H       3.2747838128    -0.2538974768    -9.9458221979
   47      C       1.2302160781    -0.2754426233    -5.0882525401
   48      C       0.0304624124    -0.2625358759    -4.3852143798
   49      H      -0.9100544017    -0.2299859016    -4.9247195778
   50      C       0.0287634394    -0.2988981993    -3.0018073503
   51      C       2.7040066494    -0.4981529555     0.0351929088
   52      C       3.5050976485     0.6277117007     0.2469310162
   53      C       4.7217946792     0.5207278588     0.9198716854
   54      H       5.3116479798     1.4170201942     1.0691910513
   55      C       5.1566657330    -0.7129729076     1.3857651782
   56      O       6.3176558372    -0.9151907632     2.0444477910
   57      C       4.3658043392    -1.8390936689     1.1757260032
   58      H       4.7124233969    -2.8002874130     1.5393133385
   59      C       3.1537295595    -1.7413242302     0.5124884084
   60      C       7.1481341497     0.1911928406     2.2892510598
   61      H       8.0170584123    -0.1843872848     2.8254742860
   62      H       7.4890853062     0.6663203188     1.3640061081
   63      H       6.6578700140     0.9486226846     2.9088904752
   64      C       3.0455457281     1.9949460925    -0.1922404697
   65      H       2.4800079142     1.9244265355    -1.1249920049
   66      H       3.9140714931     2.6198245965    -0.4161490920
   67      C       2.3618361865    -3.0018979949     0.2670425387
   68      H       1.2902089023    -2.7885463127     0.2822848504
   69      H       2.5379410902    -3.7062186995     1.0838472835
   70      C       2.1841783876     2.6871526632     0.8620551404
   71      H       1.2760282698     2.1197290797     1.0662102007
   72      H       1.8842700490     3.6816749811     0.5295337249
   73      H       2.7258550562     2.7953792700     1.8023928622
   74      C       2.7214096919    -3.6726104191    -1.0577647043
   75      H       2.5065438265    -3.0209383556    -1.9048938601
   76      H       3.7816430377    -3.9252802647    -1.0953669107
   77      H       2.1519202292    -4.5926460656    -1.1962446240
   78      C      -2.6734497604    -0.3131192223    -2.9954440939
   79      C      -3.1978695079    -1.5105888623    -3.4920701802
   80      C      -4.4077062371    -1.5326862965    -4.1850965079
   81      H      -4.7766621093    -2.4845097775    -4.5486121435
   82      C      -5.1181236743    -0.3597089226    -4.3931250979
   83      O      -6.2960707740    -0.2834540211    -5.0486029922
   84      C      -4.6064686029     0.8378193681    -3.9027786210
   85      H      -5.1628279134     1.7539899454    -4.0685651324
   86      C      -3.4041926231     0.8679250351    -3.2148327881
   87      C      -6.8616540019    -1.4685112375    -5.5503376876
   88      H      -7.7969083680    -1.1881566784    -6.0302990671
   89      H      -7.0803042560    -2.1912843816    -4.7579878247
   90      H      -6.2208322304    -1.9519582099    -6.2944044338
   91      C      -2.8727301256     2.2056719233    -2.7698191751
   92      H      -3.7053722274     2.8496571750    -2.4756891581
   93      H      -2.2501662513     2.0934650904    -1.8787102727
   94      C      -2.5144648066    -2.8312639683    -3.2401668088
   95      H      -1.4396888058    -2.6869246393    -3.1078492830
   96      H      -2.6244384675    -3.4742113425    -4.1177628502
   97      C      -2.0674228245     2.8958720048    -3.8688458578
   98      H      -1.1975054343     2.3027267258    -4.1516844687
   99      H      -2.6729963308     3.0431474097    -4.7638693703
  100      H      -1.7104095162     3.8723434859    -3.5394834669
  101      C      -3.0813809342    -3.5455884117    -2.0151979967
  102      H      -2.9496756619    -2.9442949978    -1.1152542346
  103      H      -4.1487133283    -3.7383339555    -2.1311595829
  104      H      -2.5832757228    -4.5022383925    -1.8530352510
 ----------------------------------------------------------------

   13   -2280.6486119407      7.73E-09 Convergence criterion met
 Total energy in the final basis set = -2280.64861194
 Final energy is   -2280.64861194068
 **  OPTIMIZATION CONVERGED  **

                    Orbital Energies (a.u.)
 --------------------------------------------------------------

 Alpha MOs
 -- Occupied --
-19.523 -19.523 -10.499 -10.499 -10.485 -10.484 -10.483 -10.483
-10.469 -10.467 -10.466 -10.465 -10.465 -10.465 -10.463 -10.462
-10.462 -10.460 -10.460 -10.460 -10.460 -10.459 -10.459 -10.458
-10.458 -10.458 -10.458 -10.458 -10.457 -10.455 -10.455 -10.450
-10.448 -10.448 -10.447 -10.447 -10.446 -10.446 -10.445 -10.445
-10.433 -10.432 -10.431 -10.431 -10.431 -10.430 -10.429 -10.429
-10.426 -10.426 -10.417 -10.417 -10.417 -10.416 -10.413 -10.412
 -6.933  -6.931  -1.179  -1.179  -1.026  -1.013  -0.966  -0.957
 -0.952  -0.951  -0.937  -0.930  -0.912  -0.899  -0.885  -0.884
 -0.871  -0.861  -0.860  -0.852  -0.851  -0.843  -0.824  -0.820
 -0.816  -0.815  -0.809  -0.804  -0.798  -0.797  -0.771  -0.770
 -0.742  -0.735  -0.724  -0.719  -0.708  -0.707  -0.700  -0.699
 -0.690  -0.686  -0.678  -0.667  -0.655  -0.646  -0.644  -0.642
 -0.627  -0.626  -0.601  -0.592  -0.591  -0.587  -0.582  -0.581
 -0.580  -0.575  -0.575  -0.560  -0.559  -0.544  -0.542  -0.535
 -0.531  -0.531  -0.528  -0.521  -0.518  -0.507  -0.503  -0.503
 -0.502  -0.500  -0.500  -0.497  -0.496  -0.492  -0.489  -0.486
 -0.484  -0.482  -0.480  -0.479  -0.478  -0.478  -0.475  -0.464
 -0.460  -0.457  -0.456  -0.455  -0.452  -0.449  -0.443  -0.441
 -0.439  -0.433  -0.432  -0.428  -0.427  -0.426  -0.425  -0.415
 -0.410  -0.410  -0.406  -0.405  -0.404  -0.400  -0.399  -0.398
 -0.395  -0.393  -0.392  -0.389  -0.389  -0.385  -0.383  -0.379
 -0.376  -0.375  -0.361  -0.361  -0.358  -0.354  -0.352  -0.350
 -0.339  -0.339  -0.335  -0.314  -0.310  -0.295  -0.291  -0.275
 -0.272  -0.271  -0.263  -0.255  -0.248  -0.247  -0.181

 Beta MOs
 -- Occupied --
-19.523 -19.523 -10.499 -10.499 -10.485 -10.484 -10.476 -10.476
-10.470 -10.469 -10.468 -10.464 -10.463 -10.462 -10.462 -10.461
-10.461 -10.460 -10.460 -10.460 -10.460 -10.460 -10.459 -10.459
-10.459 -10.458 -10.458 -10.458 -10.457 -10.456 -10.456 -10.448
-10.447 -10.447 -10.446 -10.445 -10.445 -10.445 -10.445 -10.443
-10.432 -10.432 -10.431 -10.431 -10.431 -10.430 -10.429 -10.429
-10.426 -10.426 -10.417 -10.417 -10.417 -10.416 -10.413 -10.412
 -6.932  -6.930  -1.179  -1.179  -1.018  -1.012  -0.959  -0.955
 -0.951  -0.950  -0.933  -0.929  -0.906  -0.897  -0.885  -0.884
 -0.868  -0.860  -0.860  -0.850  -0.848  -0.843  -0.819  -0.818
 -0.814  -0.812  -0.809  -0.798  -0.797  -0.794  -0.771  -0.770
 -0.733  -0.732  -0.724  -0.717  -0.708  -0.707  -0.700  -0.699
 -0.687  -0.680  -0.676  -0.665  -0.654  -0.644  -0.643  -0.641
 -0.627  -0.626  -0.598  -0.589  -0.589  -0.586  -0.581  -0.581
 -0.580  -0.573  -0.573  -0.559  -0.559  -0.541  -0.540  -0.533
 -0.531  -0.531  -0.527  -0.521  -0.516  -0.506  -0.503  -0.501
 -0.500  -0.499  -0.497  -0.496  -0.490  -0.489  -0.485  -0.483
 -0.481  -0.479  -0.479  -0.479  -0.478  -0.477  -0.474  -0.464
 -0.459  -0.456  -0.455  -0.453  -0.451  -0.448  -0.442  -0.437
 -0.433  -0.432  -0.427  -0.426  -0.426  -0.423  -0.414  -0.413
 -0.410  -0.409  -0.406  -0.403  -0.399  -0.398  -0.397  -0.394
 -0.393  -0.392  -0.391  -0.388  -0.387  -0.384  -0.379  -0.378
 -0.373  -0.364  -0.360  -0.359  -0.353  -0.353  -0.351  -0.338
 -0.336  -0.334  -0.326  -0.311  -0.296  -0.291  -0.272  -0.272
 -0.265  -0.260  -0.253  -0.248  -0.246

          Ground-State Mulliken Net Atomic Charges

     Atom                 Charge (a.u.)    Spin (a.u.)
  --------------------------------------------------------
      1 C                    -0.141953       0.013018
      2 C                    -0.400969      -0.003042
      3 H                     0.243057      -0.000292
      4 C                     0.099080       0.028387
      5 C                     0.192747      -0.018052
      6 C                    -0.392049       0.020809
      7 H                     0.234583      -0.001220
      8 C                    -0.215977      -0.014891
      9 H                     0.238880       0.000733
     10 C                    -0.343932       0.020514
     11 H                     0.233677      -0.001187
     12 C                    -0.064177       0.017803
     13 C                     0.239691      -0.013606
     14 C                     0.185656      -0.020361
     15 C                    -0.385662       0.023584
     16 H                     0.234718      -0.001382
     17 C                    -0.217751      -0.016080
     18 H                     0.239111       0.000781
     19 C                    -0.341562       0.023100
     20 H                     0.233409      -0.001344
     21 C                     0.092123       0.037781
     22 C                    -0.398165      -0.011675
     23 H                     0.239945       0.000173
     24 C                    -0.144192       0.019811
     25 B                     0.611213       0.158485
     26 B                     0.614092       0.157450
     27 C                    -0.139313       0.400951
     28 C                    -0.373360      -0.278843
     29 H                     0.253530       0.011466
     30 C                     0.084749       0.453019
     31 C                     0.199900      -0.210324
     32 C                    -0.382460       0.293434
     33 H                     0.234976      -0.017372
     34 C                    -0.214151      -0.200863
     35 H                     0.240555       0.009696
     36 C                    -0.348870       0.310783
     37 H                     0.235156      -0.018240
     38 C                    -0.068177       0.276875
     39 C                     0.244502      -0.196248
     40 C                     0.192156      -0.201180
     41 C                    -0.374126       0.310727
     42 H                     0.235989      -0.018485
     43 C                    -0.214780      -0.207929
     44 H                     0.242085       0.009874
     45 C                    -0.344310       0.340911
     46 H                     0.236445      -0.020002
     47 C                     0.077024       0.456430
     48 C                    -0.373689      -0.253040
     49 H                     0.252040       0.010037
     50 C                    -0.137332       0.336869
     51 C                    -0.220670      -0.016909
     52 C                     0.078517       0.003566
     53 C                    -0.437761      -0.000706
     54 H                     0.233494       0.000224
     55 C                     0.395258       0.001301
     56 O                    -0.461295       0.000252
     57 C                    -0.390288      -0.001205
     58 H                     0.226379       0.000284
     59 C                     0.075073       0.002645
     60 C                    -0.415958      -0.000036
     61 H                     0.245467       0.000002
     62 H                     0.209585       0.000025
     63 H                     0.210620       0.000023
     64 C                    -0.545435       0.004103
     65 H                     0.250892      -0.001694
     66 H                     0.228253       0.000195
     67 C                    -0.550831       0.001023
     68 H                     0.256993      -0.001053
     69 H                     0.233730       0.000060
     70 C                    -0.650848      -0.000012
     71 H                     0.245104      -0.000211
     72 H                     0.220904      -0.000003
     73 H                     0.216026       0.000052
     74 C                    -0.650538       0.000318
     75 H                     0.237524      -0.000482
     76 H                     0.219256       0.000099
     77 H                     0.220764      -0.000034
     78 C                    -0.221380      -0.016307
     79 C                     0.067745       0.002312
     80 C                    -0.433158      -0.000289
     81 H                     0.233526       0.000191
     82 C                     0.395127       0.000437
     83 O                    -0.461920       0.000071
     84 C                    -0.384102      -0.000654
     85 H                     0.225946       0.000251
     86 C                     0.072828       0.001912
     87 C                    -0.415789      -0.000014
     88 H                     0.245441       0.000002
     89 H                     0.210808       0.000006
     90 H                     0.209774       0.000009
     91 C                    -0.547674       0.001457
     92 H                     0.233350       0.000137
     93 H                     0.254121      -0.001227
     94 C                    -0.548347       0.004620
     95 H                     0.254744      -0.002225
     96 H                     0.229378       0.000065
     97 C                    -0.649248      -0.000493
     98 H                     0.235006       0.000061
     99 H                     0.218786       0.000009
    100 H                     0.221304       0.000003
    101 C                    -0.646551      -0.000108
    102 H                     0.240850      -0.000097
    103 H                     0.214728       0.000195
    104 H                     0.220354      -0.000001
  --------------------------------------------------------
  Sum of atomic charges =    -0.000000

                    Cartesian Multipole Moments
 -----------------------------------------------------------------
    Charge (ESU x 10^10)
                -0.0000
    Dipole Moment (Debye)
         X       0.9517      Y      -0.0462      Z      -1.6915
       Tot       1.9414
    Quadrupole Moments (Debye-Ang)
        XX    -288.4831     XY      17.5984     YY    -338.1591
        XZ      -5.9632     YZ      10.8130     ZZ    -277.7171

 Total job time:  39435.48s(wall), 107419.82s(cpu)
        *  Thank you very much for using Q-Chem.  Have a nice day.  *
