 Q-Chem 5.1, Q-Chem, Inc., Pleasanton, CA (2018)
 Q-Chem 5.1.1 for Intel X86 EM64T Linux

User input:
--------------------------------------------------------------
$solvent
dielectric      4.33
dielectric_infi 1.83
$end

$rem
threads 8
jobtype	sp
method PBEh-3c
basis def2-mSVP
mem_static	1024
mem_total	14000
sym_ignore	true
cis_n_roots             2
cis_singlets            false
cis_triplets		true
rpa                     false
calc_soc 		true
cis_moments             true
cis_relaxed_density	true
solvent_method		pcm
$end

$pcm
StateSpecific   1
ChargeSeparation Excited
$end

$molecule
read t1opt.mol
$end

--------------------------------------------------------------

   14   -1973.7180619629      8.25e-09  Convergence criterion met
 Total energy in the final basis set =    -1973.7180619629
 Total job time:  4474.80s(wall), 17757.75s(cpu)
        *  Thank you very much for using Q-Chem.  Have a nice day.  *
 Q-Chem 5.1, Q-Chem, Inc., Pleasanton, CA (2018)
 Q-Chem 5.1.1 for Intel X86 EM64T Linux

User input:
--------------------------------------------------------------
$rem
threads 8
jobtype sp
method PBEh-3c
basis def2-mSVP
mem_static      1024
mem_total       14000
sym_ignore      true
cis_n_roots             6
cis_singlets            true
cis_triplets            true
rpa                     false
calc_soc                true
cis_moments             true
cis_relaxed_density     true
solvent_method          pcm
$end

$molecule
read
$end

$pcm
statespecific           Marcus
$end

$solvent
dielectric      4.33
dielectric_infi 1.83
$end

--------------------------------------------------------------

             Standard Nuclear Orientation (Angstroms)
    I     Atom           X                Y                Z
 ----------------------------------------------------------------
    1      C       0.0000000000     0.0000000000     0.0000000000
    2      C       0.0000000000     0.0000000000     1.4042360000
    3      H       0.9460150642     0.0000000000     1.9339195413
    4      C      -1.1853966296     0.0007176006     2.0953715572
    5      C      -1.4895099247    -0.0013577683     3.5141877844
    6      C      -0.7519850166    -0.0047429234     4.6739796278
    7      H       0.3302313540    -0.0057790951     4.6615712180
    8      C      -1.4389191232    -0.0070151854     5.9062555902
    9      H      -0.8590952884    -0.0102522298     6.8198982496
   10      C      -2.8137664897    -0.0047978712     5.9923471931
   11      H      -3.2922769684    -0.0064253886     6.9638472050
   12      C      -2.8978385177     0.0015424888     3.6148573844
   13      C      -3.6004609615     0.0000662509     4.8161569217
   14      C      -3.5154232744     0.0068329190     2.3440864401
   15      C      -4.8902813532     0.0104831233     2.2744564915
   16      H      -5.4130672535     0.0143394343     1.3264137338
   17      C      -5.6224157402     0.0088919622     3.4784785664
   18      H      -6.7035332452     0.0115147198     3.4273077236
   19      C      -5.0134427497     0.0041670992     4.7147084709
   20      H      -5.6201859437     0.0032579618     5.6118334229
   21      C      -2.4463595831     0.0065975002     1.3725577898
   22      C      -2.4642233066     0.0099704981    -0.0030680921
   23      H      -3.4074709996     0.0168060775    -0.5390590444
   24      C      -1.2630878083     0.0020202836    -0.7226229178
   25      B       1.3343717725    -0.0002667077    -0.7554854475
   26      C       1.3209962962    -0.0264237936    -2.2887160099
   27      C       2.5342591913    -0.0409987745    -2.9972373026
   28      H       3.4677102197    -0.0387726632    -2.4452052358
   29      C       2.5342844897    -0.0539699740    -4.3703110354
   30      C       3.6033536379    -0.0609738626    -5.3515481032
   31      C       4.9766528137    -0.0590008820    -5.3019484308
   32      H       5.5132202769    -0.0535289908    -4.3619973820
   33      C       5.6912361437    -0.0630115958    -6.5185318524
   34      H       6.7726793319    -0.0609015518    -6.4809518044
   35      C       5.0694424917    -0.0687537661    -7.7478142520
   36      H       5.6652935720    -0.0711423807    -8.6520338238
   37      C       2.9774703428    -0.0672689090    -6.6172014753
   38      C       3.6564772614    -0.0704873076    -7.8308012523
   39      C       1.5685405984    -0.0659488910    -6.5044588244
   40      C       0.8093580357    -0.0701574115    -7.6524943068
   41      H      -0.2728246339    -0.0700570895    -7.6205176193
   42      C       1.4757462974    -0.0736691298    -8.8935096260
   43      H       0.8836959119    -0.0761352687    -9.7994958734
   44      C       2.8504475449    -0.0736445574    -8.9958584007
   45      H       3.3146667046    -0.0758003469    -9.9742214846
   46      C       1.2718253286    -0.0557475268    -5.0919099995
   47      C       0.0743352445    -0.0438410166    -4.4125958294
   48      H      -0.8651570621    -0.0452608147    -4.9550775599
   49      C       0.0574222111    -0.0287664475    -3.0134482481
   50      B      -1.2838212186    -0.0089604557    -2.2597758794
   51      C       2.6898680355     0.0382775337     0.0394126166
   52      C       3.2680713765     1.2633859132     0.3842690335
   53      C       4.4639539645     1.2891086026     1.0941070226
   54      H       4.9031429271     2.2462795519     1.3560400127
   55      C       5.1062993564     0.1194872074     1.4750823664
   56      C       4.5196904657    -1.0939149230     1.1326162423
   57      H       5.0044482362    -2.0195982259     1.4265885566
   58      C       3.3268265579    -1.1478362252     0.4239807137
   59      C       6.4075507596     0.1564202369     2.2227314649
   60      H       6.6373905514     1.1604794103     2.5781426754
   61      H       6.3914577018    -0.5055921947     3.0894561925
   62      H       7.2377946337    -0.1631652072     1.5898461500
   63      C       2.7085902603    -2.4716097110     0.0694000530
   64      H       3.3051882473    -3.3080749873     0.4327836601
   65      H       2.6027287065    -2.5862198436    -1.0116463650
   66      H       1.7074018129    -2.5704270301     0.4950875957
   67      C       2.5916765740     2.5483850953    -0.0079856725
   68      H       3.1610376045     3.4202052545     0.3139894422
   69      H       2.4640944353     2.6205046740    -1.0903850556
   70      H       1.5948787222     2.6264688387     0.4321084057
   71      C      -2.6557036312     0.0002323477    -3.0376242459
   72      C      -3.2993750384    -1.1970040166    -3.3681925216
   73      C      -4.5209171660    -1.1710925666    -4.0342735152
   74      H      -5.0078422491    -2.1086444626    -4.2820132353
   75      C      -5.1305658353     0.0241537610    -4.3870588800
   76      C      -4.4859986545     1.2095355981    -4.0531672962
   77      H      -4.9468393172     2.1564599413    -4.3170232776
   78      C      -3.2669832378     1.2124631869    -3.3888482805
   79      C      -6.4434363943     0.0487503711    -5.1152519513
   80      H      -6.8604247025    -0.9516937204    -5.2258687842
   81      H      -7.1813054606     0.6569923066    -4.5896637498
   82      H      -6.3355513861     0.4707298163    -6.1162494931
   83      C      -2.6767919061    -2.5126608744    -2.9939405608
   84      H      -3.2715514168    -3.3555799364    -3.3455457794
   85      H      -1.6753536941    -2.6169282300    -3.4165001223
   86      H      -2.5749559831    -2.6112235766    -1.9108876792
   87      C      -2.6066526833     2.5162401452    -3.0362369533
   88      H      -3.1812567006     3.3698573508    -3.3957177873
   89      H      -1.6057742606     2.5875630550    -3.4669712881
   90      H      -2.4947648379     2.6266827037    -1.9554242988
 ----------------------------------------------------------------

   15   -1973.7179486509      5.23e-09  Convergence criterion met
 Total energy in the final basis set =    -1973.7179486509

         TDDFT/TDA Excitation Energies
 ---------------------------------------------------

 Excited state   1: excitation energy (eV) =    2.0150
 Total energy for state  1:                 -1973.64389973 au
    Multiplicity: Triplet
    Trans. Mom.:  0.0000 X   0.0000 Y   0.0000 Z
    Strength   :     0.0000000000
    D(167) --> V(  2) amplitude = -0.2549
    D(174) --> V(  1) amplitude =  0.9205

 Excited state   2: excitation energy (eV) =    2.3724
 Total energy for state  2:                 -1973.63076559 au
    Multiplicity: Triplet
    Trans. Mom.:  0.0000 X   0.0000 Y   0.0000 Z
    Strength   :     0.0000000000
    D(172) --> V(  2) amplitude = -0.4770
    D(173) --> V(  1) amplitude =  0.8081

 Excited state   3: excitation energy (eV) =    2.4326
 Total energy for state  3:                 -1973.62855181 au
    Multiplicity: Triplet
    Trans. Mom.:  0.0000 X   0.0000 Y   0.0000 Z
    Strength   :     0.0000000000
    D(172) --> V(  1) amplitude =  0.7328
    D(172) --> V(  4) amplitude =  0.2185
    D(173) --> V(  2) amplitude = -0.5157
    D(174) --> V(  2) amplitude = -0.2142

 Excited state   4: excitation energy (eV) =    2.5278
 Total energy for state  4:                 -1973.62505315 au
    Multiplicity: Triplet
    Trans. Mom.:  0.0000 X   0.0000 Y   0.0000 Z
    Strength   :     0.0000000000
    D(167) --> V(  1) amplitude = -0.7176
    D(173) --> V(  2) amplitude = -0.2127
    D(174) --> V(  2) amplitude =  0.5370

 Excited state   5: excitation energy (eV) =    2.6887
 Total energy for state  5:                 -1973.61914231 au
    Multiplicity: Singlet
    Trans. Mom.: -0.1199 X   0.0035 Y   0.2192 Z
    Strength   :     0.0041141730
    D(174) --> V(  1) amplitude =  0.9634

 Excited state   6: excitation energy (eV) =    3.0302
 Total energy for state  6:                 -1973.60658999 au
    Multiplicity: Triplet
    Trans. Mom.:  0.0000 X   0.0000 Y   0.0000 Z
    Strength   :     0.0000000000
    D(171) --> V(  1) amplitude =  0.9432

 Excited state   7: excitation energy (eV) =    3.0978
 Total energy for state  7:                 -1973.60410778 au
    Multiplicity: Singlet
    Trans. Mom.: -1.7439 X   0.0191 Y   3.0653 Z
    Strength   :     0.9439453562
    D(171) --> V(  1) amplitude =  0.4868
    D(173) --> V(  1) amplitude =  0.8204

 Excited state   8: excitation energy (eV) =    3.1083
 Total energy for state  8:                 -1973.60372134 au
    Multiplicity: Singlet
    Trans. Mom.:  1.0879 X  -0.0070 Y  -1.8784 Z
    Strength   :     0.3588259073
    D(171) --> V(  1) amplitude =  0.8309
    D(173) --> V(  1) amplitude = -0.4785

 Excited state   9: excitation energy (eV) =    3.1875
 Total energy for state  9:                 -1973.60080875 au
    Multiplicity: Triplet
    Trans. Mom.:  0.0000 X   0.0000 Y   0.0000 Z
    Strength   :     0.0000000000
    D(170) --> V(  1) amplitude =  0.9624

 Excited state  10: excitation energy (eV) =    3.2201
 Total energy for state 10:                 -1973.59961105 au
    Multiplicity: Singlet
    Trans. Mom.:  0.0637 X  -0.0036 Y  -0.0918 Z
    Strength   :     0.0009858211
    D(170) --> V(  1) amplitude =  0.9699

 Excited state  11: excitation energy (eV) =    3.4212
 Total energy for state 11:                 -1973.59222262 au
    Multiplicity: Singlet
    Trans. Mom.:  0.2066 X   0.0177 Y   0.1293 Z
    Strength   :     0.0050068973
    D(172) --> V(  1) amplitude =  0.9238

 Excited state  12: excitation energy (eV) =    3.4803
 Total energy for state 12:                 -1973.59004842 au
    Multiplicity: Singlet
    Trans. Mom.:  0.9374 X  -0.0004 Y   0.5130 Z
    Strength   :     0.0973618420
    D(167) --> V(  1) amplitude =  0.7278
    D(174) --> V(  2) amplitude = -0.5688

 ---------------------------------------------------

                    Orbital Energies (a.u.)
 --------------------------------------------------------------

 Alpha MOs
 -- Occupied --
-10.467 -10.467 -10.467 -10.466 -10.466 -10.466 -10.466 -10.466
-10.465 -10.465 -10.463 -10.463 -10.463 -10.462 -10.462 -10.462
-10.462 -10.462 -10.459 -10.458 -10.458 -10.458 -10.456 -10.455
-10.455 -10.455 -10.451 -10.451 -10.451 -10.450 -10.449 -10.449
-10.449 -10.449 -10.438 -10.438 -10.438 -10.437 -10.432 -10.432
-10.432 -10.432 -10.427 -10.427 -10.426 -10.426 -10.426 -10.425
-10.422 -10.420  -6.947  -6.944  -1.016  -1.016  -0.962  -0.959
 -0.958  -0.956  -0.935  -0.935  -0.908  -0.899  -0.874  -0.870
 -0.870  -0.869  -0.859  -0.858  -0.848  -0.848  -0.819  -0.815
 -0.813  -0.800  -0.781  -0.780  -0.760  -0.758  -0.758  -0.757
 -0.734  -0.731  -0.730  -0.719  -0.689  -0.684  -0.678  -0.669
 -0.651  -0.644  -0.640  -0.640  -0.639  -0.638  -0.598  -0.592
 -0.591  -0.588  -0.583  -0.577  -0.575  -0.552  -0.548  -0.542
 -0.542  -0.541  -0.527  -0.527  -0.522  -0.510  -0.503  -0.501
 -0.496  -0.495  -0.493  -0.487  -0.487  -0.486  -0.481  -0.480
 -0.480  -0.479  -0.476  -0.467  -0.465  -0.465  -0.464  -0.464
 -0.464  -0.461  -0.456  -0.456  -0.450  -0.449  -0.446  -0.444
 -0.442  -0.440  -0.434  -0.431  -0.427  -0.424  -0.417  -0.412
 -0.412  -0.401  -0.399  -0.398  -0.398  -0.394  -0.391  -0.389
 -0.384  -0.381  -0.381  -0.379  -0.378  -0.368  -0.356  -0.351
 -0.350  -0.336  -0.326  -0.320  -0.298  -0.297  -0.279  -0.275
 -0.275  -0.268  -0.265  -0.264  -0.257  -0.252

          Ground-State Mulliken Net Atomic Charges

     Atom                 Charge (a.u.)
  ----------------------------------------
      1 C                    -0.156588
      2 C                    -0.388245
      3 H                     0.248351
      4 C                     0.079424
      5 C                     0.189486
      6 C                    -0.388263
      7 H                     0.250733
      8 C                    -0.229614
      9 H                     0.255140
     10 C                    -0.346842
     11 H                     0.252333
     12 C                    -0.076057
     13 C                     0.223998
     14 C                     0.182764
     15 C                    -0.381969
     16 H                     0.250686
     17 C                    -0.230742
     18 H                     0.255433
     19 C                    -0.344720
     20 H                     0.252291
     21 C                     0.072774
     22 C                    -0.386946
     23 H                     0.247095
     24 C                    -0.155204
     25 B                     0.681409
     26 C                    -0.157027
     27 C                    -0.390121
     28 H                     0.247203
     29 C                     0.080620
     30 C                     0.189461
     31 C                    -0.388344
     32 H                     0.250852
     33 C                    -0.229733
     34 H                     0.255111
     35 C                    -0.347352
     36 H                     0.252492
     37 C                    -0.074967
     38 C                     0.225424
     39 C                     0.180106
     40 C                    -0.380749
     41 H                     0.250772
     42 C                    -0.230664
     43 H                     0.255534
     44 C                    -0.345103
     45 H                     0.252154
     46 C                     0.072523
     47 C                    -0.386910
     48 H                     0.246345
     49 C                    -0.154813
     50 B                     0.684758
     51 C                    -0.224373
     52 C                     0.052421
     53 C                    -0.369352
     54 H                     0.222562
     55 C                     0.111328
     56 C                    -0.360140
     57 H                     0.221347
     58 C                     0.054886
     59 C                    -0.720586
     60 H                     0.236790
     61 H                     0.236701
     62 H                     0.239467
     63 C                    -0.770717
     64 H                     0.248441
     65 H                     0.246657
     66 H                     0.246585
     67 C                    -0.772369
     68 H                     0.248949
     69 H                     0.246893
     70 H                     0.246991
     71 C                    -0.222074
     72 C                     0.050484
     73 C                    -0.367409
     74 H                     0.222905
     75 C                     0.111869
     76 C                    -0.358705
     77 H                     0.221726
     78 C                     0.049591
     79 C                    -0.721491
     80 H                     0.237235
     81 H                     0.237643
     82 H                     0.239081
     83 C                    -0.770144
     84 H                     0.248675
     85 H                     0.246322
     86 H                     0.246168
     87 C                    -0.770177
     88 H                     0.248765
     89 H                     0.246506
     90 H                     0.246250
  ----------------------------------------
  Sum of atomic charges =    -0.000000

                    Cartesian Multipole Moments
 -----------------------------------------------------------------
    Charge (ESU x 10^10)
                -0.0000
    Dipole Moment (Debye)
         X      -0.0719      Y       0.0097      Z      -0.0537
       Tot       0.0903
    Quadrupole Moments (Debye-Ang)
        XX    -248.3643     XY      -0.6832     YY    -301.5793
        XZ      -9.7396     YZ      -0.3075     ZZ    -237.3010

 Total job time:  12728.45s(wall), 40308.13s(cpu)
        *  Thank you very much for using Q-Chem.  Have a nice day.  *
