 Q-Chem 5.0, Q-Chem, Inc., Pleasanton, CA (2017)
 Q-Chem 5.0.1 for Intel X86 EM64T Linux

User input:
--------------------------------------------------------------
$solvent
dielectric      35.7
dielectric_infi 1.81
$end

$rem
threads 8
jobtype	sp
method PBEh-3c
basis def2-mSVP
mem_static	1024
mem_total	14000
sym_ignore	true
cis_n_roots             2
cis_singlets            false
cis_triplets		true
rpa                     false
calc_soc 		true
cis_moments             true
cis_relaxed_density	true
solvent_method		pcm
$end

$pcm
StateSpecific   1
ChargeSeparation Excited
$end

$molecule
read t1opt.mol
$end

--------------------------------------------------------------

   14   -1973.7234166530      6.76E-09 Convergence criterion met
 Total energy in the final basis set = -1973.72341665
 Total job time:  4568.47s(wall), 11276.75s(cpu)
        *  Thank you very much for using Q-Chem.  Have a nice day.  *
 Q-Chem 5.0, Q-Chem, Inc., Pleasanton, CA (2017)
 Q-Chem 5.0.1 for Intel X86 EM64T Linux

User input:
--------------------------------------------------------------
$rem
threads 8
jobtype sp
method PBEh-3c
basis def2-mSVP
mem_static      1024
mem_total       14000
sym_ignore      true
cis_n_roots             6
cis_singlets            true
cis_triplets            true
rpa                     false
calc_soc                true
cis_moments             true
cis_relaxed_density     true
solvent_method          pcm
$end

$molecule
read
$end

$pcm
statespecific           Marcus
$end

$solvent
dielectric      35.7
dielectric_infi 1.81
$end

--------------------------------------------------------------

             Standard Nuclear Orientation (Angstroms)
    I     Atom           X                Y                Z
 ----------------------------------------------------------------
    1      C       0.0000000000     0.0000000000     0.0000000000
    2      C       0.0000000000     0.0000000000     1.3988720000
    3      H       0.9448561229     0.0000000000     1.9315289027
    4      C      -1.1863498739    -0.0405783022     2.0879564297
    5      C      -1.4547527786    -0.1226899322     3.5055817794
    6      C      -0.6757023209    -0.1525614092     4.6388409563
    7      H       0.4036854380    -0.0843646429     4.5913535501
    8      C      -1.3150435106    -0.2841644343     5.8877104935
    9      H      -0.7058158779    -0.3075240141     6.7819043927
   10      C      -2.6831092951    -0.3918214811     6.0099752794
   11      H      -3.1282606283    -0.5000247731     6.9914144190
   12      C      -2.8548316420    -0.2246693055     3.6378766922
   13      C      -3.5069304616    -0.3691041915     4.8591157874
   14      C      -3.5013198385    -0.1987915100     2.3824601561
   15      C      -4.8694459126    -0.3231901992     2.3570485111
   16      H      -5.4245372766    -0.3204149902     1.4280408782
   17      C      -5.5574373376    -0.4681433420     3.5813179363
   18      H      -6.6344519811    -0.5694208678     3.5575990591
   19      C      -4.9148600867    -0.4914724399     4.7989801481
   20      H      -5.4874471804    -0.6101486609     5.7105334821
   21      C      -2.4523088015    -0.0754173073     1.3824548818
   22      C      -2.4689911387    -0.0303035481     0.0081593470
   23      H      -3.4081413274    -0.0456732966    -0.5334967102
   24      C      -1.2635856471     0.0061264972    -0.7155091596
   25      B       1.3352262812    -0.0887559931    -0.7494116339
   26      C       1.3124724207    -0.1659870551    -2.2805842942
   27      C       2.5096081768    -0.3443516172    -2.9794460152
   28      H       3.4422486204    -0.4008711878    -2.4283421561
   29      C       2.4983912269    -0.4762685594    -4.3475620897
   30      C       3.5615709382    -0.7418334465    -5.2839095792
   31      C       4.9179333437    -0.9521688508    -5.1754719528
   32      H       5.4265874010    -0.9158466009    -4.2203918295
   33      C       5.6440351004    -1.2302762926    -6.3496149672
   34      H       6.7103474415    -1.3984771849    -6.2716039655
   35      C       5.0473770933    -1.3019332902    -7.5907215446
   36      H       5.6500501949    -1.5243701093    -8.4625292704
   37      C       2.9566678706    -0.8169138837    -6.5583037233
   38      C       3.6524599260    -1.0951771284    -7.7298960350
   39      C       1.5600702340    -0.6126057278    -6.4873883108
   40      C       0.8305419352    -0.6834962312    -7.6499578512
   41      H      -0.2426000965    -0.5440831050    -7.6573425839
   42      C       1.5129154715    -0.9523329149    -8.8546295536
   43      H       0.9396038175    -1.0079839464    -9.7705701642
   44      C       2.8746761036    -1.1542436622    -8.9110311300
   45      H       3.3487518326    -1.3650423537    -9.8615398712
   46      C       1.2477357108    -0.4022129489    -5.0875134054
   47      C       0.0636742594    -0.2149957647    -4.4130901927
   48      H      -0.8762233579    -0.1742706065    -4.9517704186
   49      C       0.0528297966    -0.1091102842    -3.0122531471
   50      B      -1.2808273351    -0.0037985619    -2.2526394242
   51      C      -2.6450873987     0.0447014383    -3.0328266837
   52      C      -3.2245146242     1.2724613240    -3.3645466208
   53      C      -4.4281663779     1.3065910559    -4.0614810908
   54      H      -4.8656259445     2.2663435671    -4.3160838339
   55      C      -5.0790723232     0.1405510344    -4.4391528772
   56      C      -4.4996721656    -1.0757996927    -4.0958785800
   57      H      -4.9975960236    -1.9986722191    -4.3771660160
   58      C      -3.2986317885    -1.1386100350    -3.4019643970
   59      C      -6.3696258827     0.1789501235    -5.2049030230
   60      H      -6.7338529648     1.1984293200    -5.3272624481
   61      H      -7.1510549326    -0.3924235617    -4.7015643976
   62      H      -6.2524894485    -0.2483212479    -6.2026235934
   63      C      -2.5430051471     2.5510821990    -2.9629211546
   64      H      -3.0847925642     3.4278818047    -3.3171609682
   65      H      -1.5285324275     2.6070961176    -3.3636236753
   66      H      -2.4584304867     2.6337200762    -1.8769848976
   67      C      -2.6979656261    -2.4707794239    -3.0458159859
   68      H      -3.3491363714    -3.2964288103    -3.3327587529
   69      H      -2.5144759210    -2.5536627779    -1.9723618697
   70      H      -1.7364283776    -2.6241270721    -3.5411610137
   71      C       2.6906042461    -0.1752135860     0.0501106592
   72      C       3.1991585604    -1.4196443113     0.4390268069
   73      C       4.3923730107    -1.4914589273     1.1508731944
   74      H       4.7751458718    -2.4641540613     1.4427881653
   75      C       5.1032439214    -0.3512663390     1.4957001571
   76      C       4.5904649206     0.8810903509     1.1073067154
   77      H       5.1316504045     1.7860214758     1.3652962022
   78      C       3.4026393929     0.9811832005     0.3946858573
   79      C       6.3828061382    -0.4390165661     2.2763714109
   80      H       6.7209912601    -1.4699438768     2.3768709865
   81      H       7.1843697165     0.1258572359     1.7983863876
   82      H       6.2630516141    -0.0357210240     3.2838616669
   83      C       2.8699322806     2.3290088319    -0.0027609674
   84      H       3.5516356771     3.1323102905     0.2762623244
   85      H       2.7075720202     2.3917448431    -1.0807439087
   86      H       1.9083998936     2.5315106665     0.4744513713
   87      C       2.4573696831    -2.6821461626     0.0958415365
   88      H       2.9864228459    -3.5680257936     0.4472619848
   89      H       2.3193126559    -2.7889956899    -0.9820376967
   90      H       1.4621693042    -2.6951702379     0.5455327964
 ----------------------------------------------------------------

   15   -1973.7232197977      5.09E-09 Convergence criterion met
 Total energy in the final basis set = -1973.72321980

         TDDFT/TDA Excitation Energies
 ---------------------------------------------------

 Excited state   1: excitation energy (eV) =    2.0294
 Total energy for state  1:                 -1973.64864123 au
    Multiplicity: Triplet
    Trans. Mom.:  0.0000 X   0.0000 Y   0.0000 Z
    Strength   :     0.0000000000
    D(167) --> V(  2) amplitude = -0.2520
    D(174) --> V(  1) amplitude =  0.9216

 Excited state   2: excitation energy (eV) =    2.3696
 Total energy for state  2:                 -1973.63613919 au
    Multiplicity: Triplet
    Trans. Mom.:  0.0000 X   0.0000 Y   0.0000 Z
    Strength   :     0.0000000000
    D(172) --> V(  2) amplitude =  0.4636
    D(173) --> V(  1) amplitude =  0.8047

 Excited state   3: excitation energy (eV) =    2.4366
 Total energy for state  3:                 -1973.63367729 au
    Multiplicity: Triplet
    Trans. Mom.:  0.0000 X   0.0000 Y   0.0000 Z
    Strength   :     0.0000000000
    D(172) --> V(  1) amplitude =  0.7305
    D(172) --> V(  4) amplitude = -0.2219
    D(173) --> V(  2) amplitude =  0.5213

 Excited state   4: excitation energy (eV) =    2.5448
 Total energy for state  4:                 -1973.62969906 au
    Multiplicity: Triplet
    Trans. Mom.:  0.0000 X   0.0000 Y   0.0000 Z
    Strength   :     0.0000000000
    D(167) --> V(  1) amplitude =  0.7230
    D(174) --> V(  2) amplitude = -0.5469

 Excited state   5: excitation energy (eV) =    2.7000
 Total energy for state  5:                 -1973.62399637 au
    Multiplicity: Singlet
    Trans. Mom.: -0.1232 X   0.0397 Y   0.1312 Z
    Strength   :     0.0022467655
    D(174) --> V(  1) amplitude =  0.9639

 Excited state   6: excitation energy (eV) =    3.0393
 Total energy for state  6:                 -1973.61152940 au
    Multiplicity: Triplet
    Trans. Mom.:  0.0000 X   0.0000 Y   0.0000 Z
    Strength   :     0.0000000000
    D(171) --> V(  1) amplitude =  0.9369

 Excited state   7: excitation energy (eV) =    3.0905
 Total energy for state  7:                 -1973.60964654 au
    Multiplicity: Singlet
    Trans. Mom.:  2.0309 X  -0.2109 Y  -3.5571 Z
    Strength   :     1.2736498000
    D(173) --> V(  1) amplitude =  0.9484

 Excited state   8: excitation energy (eV) =    3.1150
 Total energy for state  8:                 -1973.60874563 au
    Multiplicity: Singlet
    Trans. Mom.:  0.1176 X  -0.0023 Y  -0.2944 Z
    Strength   :     0.0076703892
    D(171) --> V(  1) amplitude =  0.9495

 Excited state   9: excitation energy (eV) =    3.1974
 Total energy for state  9:                 -1973.60571609 au
    Multiplicity: Triplet
    Trans. Mom.:  0.0000 X   0.0000 Y   0.0000 Z
    Strength   :     0.0000000000
    D(170) --> V(  1) amplitude =  0.9612

 Excited state  10: excitation energy (eV) =    3.2310
 Total energy for state 10:                 -1973.60448169 au
    Multiplicity: Singlet
    Trans. Mom.:  0.0479 X  -0.0146 Y  -0.2266 Z
    Strength   :     0.0042641598
    D(170) --> V(  1) amplitude =  0.9700

 Excited state  11: excitation energy (eV) =    3.4137
 Total energy for state 11:                 -1973.59776688 au
    Multiplicity: Singlet
    Trans. Mom.: -0.1520 X   0.3126 Y  -0.1457 Z
    Strength   :     0.0118803984
    D(172) --> V(  1) amplitude =  0.9222

 Excited state  12: excitation energy (eV) =    3.4970
 Total energy for state 12:                 -1973.59470692 au
    Multiplicity: Singlet
    Trans. Mom.: -0.9366 X  -0.0067 Y  -0.5132 Z
    Strength   :     0.0977182932
    D(167) --> V(  1) amplitude =  0.7461
    D(174) --> V(  2) amplitude = -0.5596

 ---------------------------------------------------

                    Orbital Energies (a.u.)
 --------------------------------------------------------------

 Alpha MOs
 -- Occupied --
-10.470 -10.470 -10.468 -10.468 -10.467 -10.467 -10.466 -10.466
-10.466 -10.466 -10.465 -10.464 -10.463 -10.463 -10.463 -10.463
-10.462 -10.462 -10.459 -10.458 -10.458 -10.458 -10.458 -10.458
-10.457 -10.456 -10.453 -10.453 -10.453 -10.453 -10.451 -10.451
-10.451 -10.451 -10.441 -10.441 -10.440 -10.439 -10.434 -10.434
-10.434 -10.434 -10.428 -10.427 -10.427 -10.427 -10.427 -10.427
-10.424 -10.423  -6.948  -6.947  -1.018  -1.018  -0.965  -0.961
 -0.960  -0.959  -0.936  -0.935  -0.910  -0.900  -0.876  -0.872
 -0.872  -0.872  -0.861  -0.860  -0.849  -0.848  -0.821  -0.816
 -0.815  -0.802  -0.782  -0.782  -0.762  -0.760  -0.760  -0.759
 -0.735  -0.732  -0.731  -0.720  -0.690  -0.686  -0.679  -0.670
 -0.653  -0.646  -0.642  -0.642  -0.640  -0.640  -0.598  -0.593
 -0.592  -0.589  -0.584  -0.577  -0.576  -0.554  -0.549  -0.544
 -0.543  -0.543  -0.528  -0.527  -0.523  -0.512  -0.504  -0.502
 -0.497  -0.496  -0.495  -0.489  -0.488  -0.488  -0.483  -0.482
 -0.481  -0.481  -0.477  -0.468  -0.467  -0.466  -0.466  -0.465
 -0.465  -0.461  -0.458  -0.457  -0.451  -0.450  -0.447  -0.445
 -0.442  -0.442  -0.434  -0.433  -0.429  -0.426  -0.419  -0.413
 -0.413  -0.402  -0.399  -0.399  -0.399  -0.394  -0.392  -0.390
 -0.387  -0.383  -0.383  -0.381  -0.380  -0.370  -0.358  -0.353
 -0.352  -0.339  -0.328  -0.322  -0.299  -0.298  -0.282  -0.278
 -0.278  -0.270  -0.268  -0.266  -0.259  -0.255

          Ground-State Mulliken Net Atomic Charges

     Atom                 Charge (a.u.)
  ----------------------------------------
      1 C                    -0.154923
      2 C                    -0.383707
      3 H                     0.251574
      4 C                     0.060498
      5 C                     0.177718
      6 C                    -0.384766
      7 H                     0.258603
      8 C                    -0.238410
      9 H                     0.264203
     10 C                    -0.347039
     11 H                     0.262208
     12 C                    -0.074073
     13 C                     0.216636
     14 C                     0.179060
     15 C                    -0.393471
     16 H                     0.258561
     17 C                    -0.236360
     18 H                     0.263692
     19 C                    -0.350470
     20 H                     0.262481
     21 C                     0.086827
     22 C                    -0.395585
     23 H                     0.250172
     24 C                    -0.156480
     25 B                     0.674677
     26 C                    -0.153802
     27 C                    -0.386260
     28 H                     0.251001
     29 C                     0.061602
     30 C                     0.178786
     31 C                    -0.382931
     32 H                     0.259250
     33 C                    -0.237942
     34 H                     0.264345
     35 C                    -0.347573
     36 H                     0.262246
     37 C                    -0.076162
     38 C                     0.216863
     39 C                     0.179350
     40 C                    -0.389812
     41 H                     0.259006
     42 C                    -0.237092
     43 H                     0.263921
     44 C                    -0.350186
     45 H                     0.262478
     46 C                     0.082347
     47 C                    -0.393106
     48 H                     0.250357
     49 C                    -0.156405
     50 B                     0.676742
     51 C                    -0.218645
     52 C                     0.048405
     53 C                    -0.376609
     54 H                     0.231030
     55 C                     0.105972
     56 C                    -0.364682
     57 H                     0.229224
     58 C                     0.046244
     59 C                    -0.724482
     60 H                     0.240570
     61 H                     0.240272
     62 H                     0.241392
     63 C                    -0.775935
     64 H                     0.254107
     65 H                     0.247185
     66 H                     0.247183
     67 C                    -0.772345
     68 H                     0.253302
     69 H                     0.246281
     70 H                     0.247328
     71 C                    -0.224982
     72 C                     0.046348
     73 C                    -0.375465
     74 H                     0.231098
     75 C                     0.106290
     76 C                    -0.363969
     77 H                     0.229415
     78 C                     0.050784
     79 C                    -0.724347
     80 H                     0.240582
     81 H                     0.240087
     82 H                     0.241912
     83 C                    -0.772677
     84 H                     0.253444
     85 H                     0.246901
     86 H                     0.245988
     87 C                    -0.773631
     88 H                     0.253873
     89 H                     0.247106
     90 H                     0.246796
  ----------------------------------------
  Sum of atomic charges =    -0.000000

                    Cartesian Multipole Moments
 -----------------------------------------------------------------
    Charge (ESU x 10^10)
                -0.0000
    Dipole Moment (Debye)
         X       0.1531      Y      -1.1827      Z       0.0680
       Tot       1.1945
    Quadrupole Moments (Debye-Ang)
        XX    -245.5112     XY      -1.9546     YY    -299.1135
        XZ     -10.0527     YZ       5.3607     ZZ    -231.7104

 Total job time:  7913.46s(wall), 26648.16s(cpu)
        *  Thank you very much for using Q-Chem.  Have a nice day.  *
