 Q-Chem 5.0, Q-Chem, Inc., Pleasanton, CA (2017)
 Q-Chem 5.0.1 for Intel X86 EM64T Linux

User input:
--------------------------------------------------------------
$solvent
dielectric      2.38
dielectric_infi 2.25
$end

$rem
threads 8
jobtype	sp
method PBEh-3c
basis def2-mSVP
mem_static	1024
mem_total	14000
sym_ignore	true
cis_n_roots             2
cis_singlets            false
cis_triplets		true
rpa                     false
calc_soc 		true
cis_moments             true
cis_relaxed_density	true
solvent_method		pcm
$end

$pcm
StateSpecific   1
ChargeSeparation Excited
$end

$molecule
read t1opt.mol
$end

--------------------------------------------------------------

   15   -1973.7116528214      4.98E-09 Convergence criterion met
 Total energy in the final basis set = -1973.71165282
 Total job time:  4952.17s(wall), 12738.06s(cpu)
        *  Thank you very much for using Q-Chem.  Have a nice day.  *
 Q-Chem 5.0, Q-Chem, Inc., Pleasanton, CA (2017)
 Q-Chem 5.0.1 for Intel X86 EM64T Linux

User input:
--------------------------------------------------------------
$rem
threads 8
jobtype sp
method PBEh-3c
basis def2-mSVP
mem_static      1024
mem_total       14000
sym_ignore      true
cis_n_roots             6
cis_singlets            true
cis_triplets            true
rpa                     false
calc_soc                true
cis_moments             true
cis_relaxed_density     true
solvent_method          pcm
$end

$molecule
read
$end

$pcm
statespecific           Marcus
$end

$solvent
dielectric      2.38
dielectric_infi 2.25
$end

--------------------------------------------------------------

             Standard Nuclear Orientation (Angstroms)
    I     Atom           X                Y                Z
 ----------------------------------------------------------------
    1      C       0.0000000000     0.0000000000     0.0000000000
    2      C       0.0000000000     0.0000000000     1.3988720000
    3      H       0.9448561229     0.0000000000     1.9315289027
    4      C      -1.1863498739    -0.0405783022     2.0879564297
    5      C      -1.4547527786    -0.1226899322     3.5055817794
    6      C      -0.6757023209    -0.1525614092     4.6388409563
    7      H       0.4036854380    -0.0843646429     4.5913535501
    8      C      -1.3150435106    -0.2841644343     5.8877104935
    9      H      -0.7058158779    -0.3075240141     6.7819043927
   10      C      -2.6831092951    -0.3918214811     6.0099752794
   11      H      -3.1282606283    -0.5000247731     6.9914144190
   12      C      -2.8548316420    -0.2246693055     3.6378766922
   13      C      -3.5069304616    -0.3691041915     4.8591157874
   14      C      -3.5013198385    -0.1987915100     2.3824601561
   15      C      -4.8694459126    -0.3231901992     2.3570485111
   16      H      -5.4245372766    -0.3204149902     1.4280408782
   17      C      -5.5574373376    -0.4681433420     3.5813179363
   18      H      -6.6344519811    -0.5694208678     3.5575990591
   19      C      -4.9148600867    -0.4914724399     4.7989801481
   20      H      -5.4874471804    -0.6101486609     5.7105334821
   21      C      -2.4523088015    -0.0754173073     1.3824548818
   22      C      -2.4689911387    -0.0303035481     0.0081593470
   23      H      -3.4081413274    -0.0456732966    -0.5334967102
   24      C      -1.2635856471     0.0061264972    -0.7155091596
   25      B       1.3352262812    -0.0887559931    -0.7494116339
   26      C       1.3124724207    -0.1659870551    -2.2805842942
   27      C       2.5096081768    -0.3443516172    -2.9794460152
   28      H       3.4422486204    -0.4008711878    -2.4283421561
   29      C       2.4983912269    -0.4762685594    -4.3475620897
   30      C       3.5615709382    -0.7418334465    -5.2839095792
   31      C       4.9179333437    -0.9521688508    -5.1754719528
   32      H       5.4265874010    -0.9158466009    -4.2203918295
   33      C       5.6440351004    -1.2302762926    -6.3496149672
   34      H       6.7103474415    -1.3984771849    -6.2716039655
   35      C       5.0473770933    -1.3019332902    -7.5907215446
   36      H       5.6500501949    -1.5243701093    -8.4625292704
   37      C       2.9566678706    -0.8169138837    -6.5583037233
   38      C       3.6524599260    -1.0951771284    -7.7298960350
   39      C       1.5600702340    -0.6126057278    -6.4873883108
   40      C       0.8305419352    -0.6834962312    -7.6499578512
   41      H      -0.2426000965    -0.5440831050    -7.6573425839
   42      C       1.5129154715    -0.9523329149    -8.8546295536
   43      H       0.9396038175    -1.0079839464    -9.7705701642
   44      C       2.8746761036    -1.1542436622    -8.9110311300
   45      H       3.3487518326    -1.3650423537    -9.8615398712
   46      C       1.2477357108    -0.4022129489    -5.0875134054
   47      C       0.0636742594    -0.2149957647    -4.4130901927
   48      H      -0.8762233579    -0.1742706065    -4.9517704186
   49      C       0.0528297966    -0.1091102842    -3.0122531471
   50      B      -1.2808273351    -0.0037985619    -2.2526394242
   51      C      -2.6450873987     0.0447014383    -3.0328266837
   52      C      -3.2245146242     1.2724613240    -3.3645466208
   53      C      -4.4281663779     1.3065910559    -4.0614810908
   54      H      -4.8656259445     2.2663435671    -4.3160838339
   55      C      -5.0790723232     0.1405510344    -4.4391528772
   56      C      -4.4996721656    -1.0757996927    -4.0958785800
   57      H      -4.9975960236    -1.9986722191    -4.3771660160
   58      C      -3.2986317885    -1.1386100350    -3.4019643970
   59      C      -6.3696258827     0.1789501235    -5.2049030230
   60      H      -6.7338529648     1.1984293200    -5.3272624481
   61      H      -7.1510549326    -0.3924235617    -4.7015643976
   62      H      -6.2524894485    -0.2483212479    -6.2026235934
   63      C      -2.5430051471     2.5510821990    -2.9629211546
   64      H      -3.0847925642     3.4278818047    -3.3171609682
   65      H      -1.5285324275     2.6070961176    -3.3636236753
   66      H      -2.4584304867     2.6337200762    -1.8769848976
   67      C      -2.6979656261    -2.4707794239    -3.0458159859
   68      H      -3.3491363714    -3.2964288103    -3.3327587529
   69      H      -2.5144759210    -2.5536627779    -1.9723618697
   70      H      -1.7364283776    -2.6241270721    -3.5411610137
   71      C       2.6906042461    -0.1752135860     0.0501106592
   72      C       3.1991585604    -1.4196443113     0.4390268069
   73      C       4.3923730107    -1.4914589273     1.1508731944
   74      H       4.7751458718    -2.4641540613     1.4427881653
   75      C       5.1032439214    -0.3512663390     1.4957001571
   76      C       4.5904649206     0.8810903509     1.1073067154
   77      H       5.1316504045     1.7860214758     1.3652962022
   78      C       3.4026393929     0.9811832005     0.3946858573
   79      C       6.3828061382    -0.4390165661     2.2763714109
   80      H       6.7209912601    -1.4699438768     2.3768709865
   81      H       7.1843697165     0.1258572359     1.7983863876
   82      H       6.2630516141    -0.0357210240     3.2838616669
   83      C       2.8699322806     2.3290088319    -0.0027609674
   84      H       3.5516356771     3.1323102905     0.2762623244
   85      H       2.7075720202     2.3917448431    -1.0807439087
   86      H       1.9083998936     2.5315106665     0.4744513713
   87      C       2.4573696831    -2.6821461626     0.0958415365
   88      H       2.9864228459    -3.5680257936     0.4472619848
   89      H       2.3193126559    -2.7889956899    -0.9820376967
   90      H       1.4621693042    -2.6951702379     0.5455327964
 ----------------------------------------------------------------

   15   -1973.7116442663      5.01E-09 Convergence criterion met
 Total energy in the final basis set = -1973.71164427

         TDDFT/TDA Excitation Energies
 ---------------------------------------------------

 Excited state   1: excitation energy (eV) =    2.0167
 Total energy for state  1:                 -1973.63753329 au
    Multiplicity: Triplet
    Trans. Mom.:  0.0000 X   0.0000 Y   0.0000 Z
    Strength   :     0.0000000000
    D(167) --> V(  2) amplitude = -0.2564
    D(174) --> V(  1) amplitude =  0.9232

 Excited state   2: excitation energy (eV) =    2.3754
 Total energy for state  2:                 -1973.62434823 au
    Multiplicity: Triplet
    Trans. Mom.:  0.0000 X   0.0000 Y   0.0000 Z
    Strength   :     0.0000000000
    D(171) --> V(  2) amplitude = -0.3031
    D(172) --> V(  2) amplitude =  0.3670
    D(173) --> V(  1) amplitude =  0.7987

 Excited state   3: excitation energy (eV) =    2.4387
 Total energy for state  3:                 -1973.62202478 au
    Multiplicity: Triplet
    Trans. Mom.:  0.0000 X   0.0000 Y   0.0000 Z
    Strength   :     0.0000000000
    D(171) --> V(  1) amplitude = -0.4514
    D(172) --> V(  1) amplitude =  0.5642
    D(173) --> V(  2) amplitude =  0.5289

 Excited state   4: excitation energy (eV) =    2.5260
 Total energy for state  4:                 -1973.61881538 au
    Multiplicity: Triplet
    Trans. Mom.:  0.0000 X   0.0000 Y   0.0000 Z
    Strength   :     0.0000000000
    D(167) --> V(  1) amplitude =  0.7167
    D(174) --> V(  2) amplitude = -0.5547

 Excited state   5: excitation energy (eV) =    2.6898
 Total energy for state  5:                 -1973.61279776 au
    Multiplicity: Singlet
    Trans. Mom.: -0.1202 X   0.0410 Y   0.1299 Z
    Strength   :     0.0021759139
    D(174) --> V(  1) amplitude =  0.9672

 Excited state   6: excitation energy (eV) =    3.0230
 Total energy for state  6:                 -1973.60055021 au
    Multiplicity: Triplet
    Trans. Mom.:  0.0000 X   0.0000 Y   0.0000 Z
    Strength   :     0.0000000000
    D(171) --> V(  1) amplitude =  0.7233
    D(172) --> V(  1) amplitude =  0.6063

 Excited state   7: excitation energy (eV) =    3.0928
 Total energy for state  7:                 -1973.59798442 au
    Multiplicity: Singlet
    Trans. Mom.:  1.9607 X  -0.2057 Y  -3.4089 Z
    Strength   :     1.1750459743
    D(171) --> V(  1) amplitude = -0.2488
    D(172) --> V(  1) amplitude = -0.2424
    D(173) --> V(  1) amplitude =  0.8898

 Excited state   8: excitation energy (eV) =    3.0984
 Total energy for state  8:                 -1973.59778130 au
    Multiplicity: Singlet
    Trans. Mom.:  0.7187 X  -0.0651 Y  -1.3494 Z
    Strength   :     0.1777452274
    D(171) --> V(  1) amplitude =  0.6767
    D(172) --> V(  1) amplitude =  0.5919
    D(173) --> V(  1) amplitude =  0.3414

 Excited state   9: excitation energy (eV) =    3.1795
 Total energy for state  9:                 -1973.59480103 au
    Multiplicity: Triplet
    Trans. Mom.:  0.0000 X   0.0000 Y   0.0000 Z
    Strength   :     0.0000000000
    D(170) --> V(  1) amplitude =  0.9585

 Excited state  10: excitation energy (eV) =    3.2129
 Total energy for state 10:                 -1973.59357394 au
    Multiplicity: Singlet
    Trans. Mom.:  0.0697 X  -0.0172 Y  -0.2705 Z
    Strength   :     0.0061654387
    D(170) --> V(  1) amplitude =  0.9668

 Excited state  11: excitation energy (eV) =    3.4164
 Total energy for state 11:                 -1973.58609206 au
    Multiplicity: Singlet
    Trans. Mom.: -0.2380 X   0.3293 Y  -0.1654 Z
    Strength   :     0.0161061662
    D(171) --> V(  1) amplitude = -0.6086
    D(172) --> V(  1) amplitude =  0.6909

 Excited state  12: excitation energy (eV) =    3.4723
 Total energy for state 12:                 -1973.58403992 au
    Multiplicity: Singlet
    Trans. Mom.: -0.9648 X  -0.0304 Y  -0.5294 Z
    Strength   :     0.1031028369
    D(167) --> V(  1) amplitude =  0.7204
    D(174) --> V(  2) amplitude = -0.5849

 ---------------------------------------------------

                    Orbital Energies (a.u.)
 --------------------------------------------------------------

 Alpha MOs
 -- Occupied --
-10.466 -10.466 -10.466 -10.466 -10.465 -10.465 -10.465 -10.465
-10.465 -10.464 -10.463 -10.463 -10.463 -10.462 -10.462 -10.462
-10.461 -10.460 -10.459 -10.459 -10.459 -10.458 -10.455 -10.455
-10.453 -10.452 -10.449 -10.449 -10.449 -10.448 -10.448 -10.448
-10.448 -10.447 -10.437 -10.437 -10.436 -10.435 -10.431 -10.431
-10.431 -10.430 -10.427 -10.427 -10.425 -10.425 -10.424 -10.424
-10.419 -10.418  -6.944  -6.943  -1.016  -1.015  -0.961  -0.957
 -0.957  -0.955  -0.934  -0.934  -0.907  -0.898  -0.872  -0.869
 -0.868  -0.868  -0.858  -0.857  -0.848  -0.847  -0.818  -0.815
 -0.813  -0.799  -0.780  -0.779  -0.759  -0.757  -0.757  -0.756
 -0.733  -0.730  -0.729  -0.719  -0.689  -0.683  -0.678  -0.668
 -0.650  -0.643  -0.639  -0.639  -0.638  -0.636  -0.597  -0.592
 -0.591  -0.588  -0.583  -0.576  -0.575  -0.551  -0.546  -0.542
 -0.541  -0.540  -0.527  -0.526  -0.521  -0.509  -0.502  -0.500
 -0.495  -0.494  -0.493  -0.486  -0.485  -0.485  -0.480  -0.480
 -0.479  -0.479  -0.475  -0.467  -0.465  -0.464  -0.463  -0.463
 -0.463  -0.460  -0.455  -0.454  -0.449  -0.448  -0.445  -0.443
 -0.442  -0.440  -0.433  -0.430  -0.426  -0.422  -0.416  -0.411
 -0.411  -0.401  -0.399  -0.397  -0.397  -0.394  -0.391  -0.388
 -0.383  -0.380  -0.379  -0.378  -0.377  -0.367  -0.354  -0.350
 -0.348  -0.335  -0.324  -0.318  -0.297  -0.296  -0.278  -0.273
 -0.273  -0.266  -0.264  -0.263  -0.256  -0.251

          Ground-State Mulliken Net Atomic Charges

     Atom                 Charge (a.u.)
  ----------------------------------------
      1 C                    -0.154594
      2 C                    -0.381438
      3 H                     0.245611
      4 C                     0.067483
      5 C                     0.186929
      6 C                    -0.378774
      7 H                     0.243343
      8 C                    -0.224823
      9 H                     0.247701
     10 C                    -0.340966
     11 H                     0.243598
     12 C                    -0.072212
     13 C                     0.231287
     14 C                     0.188512
     15 C                    -0.387580
     16 H                     0.243226
     17 C                    -0.222495
     18 H                     0.247335
     19 C                    -0.344482
     20 H                     0.243948
     21 C                     0.094087
     22 C                    -0.393355
     23 H                     0.244455
     24 C                    -0.156472
     25 B                     0.684302
     26 C                    -0.153956
     27 C                    -0.383885
     28 H                     0.244978
     29 C                     0.068330
     30 C                     0.187831
     31 C                    -0.377082
     32 H                     0.244012
     33 C                    -0.224411
     34 H                     0.247923
     35 C                    -0.341602
     36 H                     0.243745
     37 C                    -0.074548
     38 C                     0.231291
     39 C                     0.188579
     40 C                    -0.383927
     41 H                     0.243702
     42 C                    -0.223233
     43 H                     0.247636
     44 C                    -0.344145
     45 H                     0.244064
     46 C                     0.089293
     47 C                    -0.390892
     48 H                     0.244504
     49 C                    -0.156298
     50 B                     0.686202
     51 C                    -0.220626
     52 C                     0.056105
     53 C                    -0.363020
     54 H                     0.215899
     55 C                     0.117109
     56 C                    -0.353656
     57 H                     0.214647
     58 C                     0.052009
     59 C                    -0.718427
     60 H                     0.234220
     61 H                     0.235102
     62 H                     0.236410
     63 C                    -0.769717
     64 H                     0.245122
     65 H                     0.246079
     66 H                     0.246515
     67 C                    -0.765776
     68 H                     0.244196
     69 H                     0.245583
     70 H                     0.246046
     71 C                    -0.227053
     72 C                     0.052421
     73 C                    -0.362249
     74 H                     0.215887
     75 C                     0.117246
     76 C                    -0.352618
     77 H                     0.214989
     78 C                     0.057782
     79 C                    -0.718297
     80 H                     0.234076
     81 H                     0.234977
     82 H                     0.237049
     83 C                    -0.766218
     84 H                     0.244420
     85 H                     0.246192
     86 H                     0.244692
     87 C                    -0.767164
     88 H                     0.244749
     89 H                     0.246124
     90 H                     0.246438
  ----------------------------------------
  Sum of atomic charges =    -0.000000

                    Cartesian Multipole Moments
 -----------------------------------------------------------------
    Charge (ESU x 10^10)
                -0.0000
    Dipole Moment (Debye)
         X       0.1074      Y      -0.9760      Z       0.0642
       Tot       0.9840
    Quadrupole Moments (Debye-Ang)
        XX    -253.3900     XY      -1.6317     YY    -300.2948
        XZ      -7.3610     YZ       4.5012     ZZ    -242.9138

 Total job time:  8656.87s(wall), 29210.90s(cpu)
        *  Thank you very much for using Q-Chem.  Have a nice day.  *
