 Q-Chem 5.1, Q-Chem, Inc., Pleasanton, CA (2018)
 Q-Chem 5.1.1 for Intel X86 EM64T Linux

User input:
--------------------------------------------------------------
$solvent
dielectric      2.38
dielectric_infi 2.25
$end

$rem
threads 8
jobtype	sp
method PBEh-3c
basis def2-mSVP
mem_static	1024
mem_total	14000
sym_ignore	true
cis_n_roots             2
cis_singlets            false
cis_triplets		true
rpa                     false
calc_soc 		true
cis_moments             true
cis_relaxed_density	true
solvent_method		pcm
$end

$pcm
StateSpecific   1
ChargeSeparation Excited
$end

$molecule
read t1opt.mol
$end

--------------------------------------------------------------

   15   -1973.7125863455      4.87e-09  Convergence criterion met
 Total energy in the final basis set =    -1973.7125863455
 Total job time:  4569.43s(wall), 18441.37s(cpu)
        *  Thank you very much for using Q-Chem.  Have a nice day.  *
 Q-Chem 5.1, Q-Chem, Inc., Pleasanton, CA (2018)
 Q-Chem 5.1.1 for Intel X86 EM64T Linux

User input:
--------------------------------------------------------------
$rem
threads 8
jobtype sp
method PBEh-3c
basis def2-mSVP
mem_static      1024
mem_total       14000
sym_ignore      true
cis_n_roots             6
cis_singlets            true
cis_triplets            true
rpa                     false
calc_soc                true
cis_moments             true
cis_relaxed_density     true
solvent_method          pcm
$end

$molecule
read
$end

$pcm
statespecific           Marcus
$end

$solvent
dielectric      2.38
dielectric_infi 2.25
$end

--------------------------------------------------------------

             Standard Nuclear Orientation (Angstroms)
    I     Atom           X                Y                Z
 ----------------------------------------------------------------
    1      C       0.0000000000     0.0000000000     0.0000000000
    2      C       0.0000000000     0.0000000000     1.4042360000
    3      H       0.9460150642     0.0000000000     1.9339195413
    4      C      -1.1853966296     0.0007176006     2.0953715572
    5      C      -1.4895099247    -0.0013577683     3.5141877844
    6      C      -0.7519850166    -0.0047429234     4.6739796278
    7      H       0.3302313540    -0.0057790951     4.6615712180
    8      C      -1.4389191232    -0.0070151854     5.9062555902
    9      H      -0.8590952884    -0.0102522298     6.8198982496
   10      C      -2.8137664897    -0.0047978712     5.9923471931
   11      H      -3.2922769684    -0.0064253886     6.9638472050
   12      C      -2.8978385177     0.0015424888     3.6148573844
   13      C      -3.6004609615     0.0000662509     4.8161569217
   14      C      -3.5154232744     0.0068329190     2.3440864401
   15      C      -4.8902813532     0.0104831233     2.2744564915
   16      H      -5.4130672535     0.0143394343     1.3264137338
   17      C      -5.6224157402     0.0088919622     3.4784785664
   18      H      -6.7035332452     0.0115147198     3.4273077236
   19      C      -5.0134427497     0.0041670992     4.7147084709
   20      H      -5.6201859437     0.0032579618     5.6118334229
   21      C      -2.4463595831     0.0065975002     1.3725577898
   22      C      -2.4642233066     0.0099704981    -0.0030680921
   23      H      -3.4074709996     0.0168060775    -0.5390590444
   24      C      -1.2630878083     0.0020202836    -0.7226229178
   25      B       1.3343717725    -0.0002667077    -0.7554854475
   26      C       1.3209962962    -0.0264237936    -2.2887160099
   27      C       2.5342591913    -0.0409987745    -2.9972373026
   28      H       3.4677102197    -0.0387726632    -2.4452052358
   29      C       2.5342844897    -0.0539699740    -4.3703110354
   30      C       3.6033536379    -0.0609738626    -5.3515481032
   31      C       4.9766528137    -0.0590008820    -5.3019484308
   32      H       5.5132202769    -0.0535289908    -4.3619973820
   33      C       5.6912361437    -0.0630115958    -6.5185318524
   34      H       6.7726793319    -0.0609015518    -6.4809518044
   35      C       5.0694424917    -0.0687537661    -7.7478142520
   36      H       5.6652935720    -0.0711423807    -8.6520338238
   37      C       2.9774703428    -0.0672689090    -6.6172014753
   38      C       3.6564772614    -0.0704873076    -7.8308012523
   39      C       1.5685405984    -0.0659488910    -6.5044588244
   40      C       0.8093580357    -0.0701574115    -7.6524943068
   41      H      -0.2728246339    -0.0700570895    -7.6205176193
   42      C       1.4757462974    -0.0736691298    -8.8935096260
   43      H       0.8836959119    -0.0761352687    -9.7994958734
   44      C       2.8504475449    -0.0736445574    -8.9958584007
   45      H       3.3146667046    -0.0758003469    -9.9742214846
   46      C       1.2718253286    -0.0557475268    -5.0919099995
   47      C       0.0743352445    -0.0438410166    -4.4125958294
   48      H      -0.8651570621    -0.0452608147    -4.9550775599
   49      C       0.0574222111    -0.0287664475    -3.0134482481
   50      B      -1.2838212186    -0.0089604557    -2.2597758794
   51      C       2.6898680355     0.0382775337     0.0394126166
   52      C       3.2680713765     1.2633859132     0.3842690335
   53      C       4.4639539645     1.2891086026     1.0941070226
   54      H       4.9031429271     2.2462795519     1.3560400127
   55      C       5.1062993564     0.1194872074     1.4750823664
   56      C       4.5196904657    -1.0939149230     1.1326162423
   57      H       5.0044482362    -2.0195982259     1.4265885566
   58      C       3.3268265579    -1.1478362252     0.4239807137
   59      C       6.4075507596     0.1564202369     2.2227314649
   60      H       6.6373905514     1.1604794103     2.5781426754
   61      H       6.3914577018    -0.5055921947     3.0894561925
   62      H       7.2377946337    -0.1631652072     1.5898461500
   63      C       2.7085902603    -2.4716097110     0.0694000530
   64      H       3.3051882473    -3.3080749873     0.4327836601
   65      H       2.6027287065    -2.5862198436    -1.0116463650
   66      H       1.7074018129    -2.5704270301     0.4950875957
   67      C       2.5916765740     2.5483850953    -0.0079856725
   68      H       3.1610376045     3.4202052545     0.3139894422
   69      H       2.4640944353     2.6205046740    -1.0903850556
   70      H       1.5948787222     2.6264688387     0.4321084057
   71      C      -2.6557036312     0.0002323477    -3.0376242459
   72      C      -3.2993750384    -1.1970040166    -3.3681925216
   73      C      -4.5209171660    -1.1710925666    -4.0342735152
   74      H      -5.0078422491    -2.1086444626    -4.2820132353
   75      C      -5.1305658353     0.0241537610    -4.3870588800
   76      C      -4.4859986545     1.2095355981    -4.0531672962
   77      H      -4.9468393172     2.1564599413    -4.3170232776
   78      C      -3.2669832378     1.2124631869    -3.3888482805
   79      C      -6.4434363943     0.0487503711    -5.1152519513
   80      H      -6.8604247025    -0.9516937204    -5.2258687842
   81      H      -7.1813054606     0.6569923066    -4.5896637498
   82      H      -6.3355513861     0.4707298163    -6.1162494931
   83      C      -2.6767919061    -2.5126608744    -2.9939405608
   84      H      -3.2715514168    -3.3555799364    -3.3455457794
   85      H      -1.6753536941    -2.6169282300    -3.4165001223
   86      H      -2.5749559831    -2.6112235766    -1.9108876792
   87      C      -2.6066526833     2.5162401452    -3.0362369533
   88      H      -3.1812567006     3.3698573508    -3.3957177873
   89      H      -1.6057742606     2.5875630550    -3.4669712881
   90      H      -2.4947648379     2.6266827037    -1.9554242988
 ----------------------------------------------------------------

   15   -1973.7125778180      4.98e-09  Convergence criterion met
 Total energy in the final basis set =    -1973.7125778180

         TDDFT/TDA Excitation Energies
 ---------------------------------------------------

 Excited state   1: excitation energy (eV) =    2.0102
 Total energy for state  1:                 -1973.63870356 au
    Multiplicity: Triplet
    Trans. Mom.:  0.0000 X   0.0000 Y   0.0000 Z
    Strength   :     0.0000000000
    D(167) --> V(  2) amplitude =  0.2568
    D(174) --> V(  1) amplitude =  0.9215

 Excited state   2: excitation energy (eV) =    2.3747
 Total energy for state  2:                 -1973.62530790 au
    Multiplicity: Triplet
    Trans. Mom.:  0.0000 X   0.0000 Y   0.0000 Z
    Strength   :     0.0000000000
    D(171) --> V(  2) amplitude =  0.2722
    D(172) --> V(  2) amplitude =  0.3965
    D(173) --> V(  1) amplitude =  0.8063

 Excited state   3: excitation energy (eV) =    2.4333
 Total energy for state  3:                 -1973.62315570 au
    Multiplicity: Triplet
    Trans. Mom.:  0.0000 X   0.0000 Y   0.0000 Z
    Strength   :     0.0000000000
    D(171) --> V(  1) amplitude =  0.4102
    D(172) --> V(  1) amplitude =  0.6014
    D(173) --> V(  2) amplitude =  0.5179
    D(174) --> V(  2) amplitude =  0.2165

 Excited state   4: excitation energy (eV) =    2.5201
 Total energy for state  4:                 -1973.61996446 au
    Multiplicity: Triplet
    Trans. Mom.:  0.0000 X   0.0000 Y   0.0000 Z
    Strength   :     0.0000000000
    D(167) --> V(  1) amplitude = -0.7136
    D(173) --> V(  2) amplitude =  0.2141
    D(174) --> V(  2) amplitude = -0.5397

 Excited state   5: excitation energy (eV) =    2.6833
 Total energy for state  5:                 -1973.61396673 au
    Multiplicity: Singlet
    Trans. Mom.:  0.1232 X  -0.0036 Y  -0.2249 Z
    Strength   :     0.0043244429
    D(174) --> V(  1) amplitude =  0.9654

 Excited state   6: excitation energy (eV) =    3.0196
 Total energy for state  6:                 -1973.60161106 au
    Multiplicity: Triplet
    Trans. Mom.:  0.0000 X   0.0000 Y   0.0000 Z
    Strength   :     0.0000000000
    D(171) --> V(  1) amplitude =  0.7789
    D(172) --> V(  1) amplitude = -0.5339

 Excited state   7: excitation energy (eV) =    3.0886
 Total energy for state  7:                 -1973.59907455 au
    Multiplicity: Singlet
    Trans. Mom.:  1.5805 X  -0.0180 Y  -2.7844 Z
    Strength   :     0.7757100651
    D(171) --> V(  1) amplitude =  0.5034
    D(172) --> V(  1) amplitude = -0.3557
    D(173) --> V(  1) amplitude =  0.7333

 Excited state   8: excitation energy (eV) =    3.0981
 Total energy for state  8:                 -1973.59872404 au
    Multiplicity: Singlet
    Trans. Mom.: -1.3995 X   0.0103 Y   2.4258 Z
    Strength   :     0.5953082024
    D(171) --> V(  1) amplitude =  0.6129
    D(172) --> V(  1) amplitude = -0.4174
    D(173) --> V(  1) amplitude = -0.6067

 Excited state   9: excitation energy (eV) =    3.1753
 Total energy for state  9:                 -1973.59588722 au
    Multiplicity: Triplet
    Trans. Mom.:  0.0000 X   0.0000 Y   0.0000 Z
    Strength   :     0.0000000000
    D(170) --> V(  1) amplitude =  0.9623

 Excited state  10: excitation energy (eV) =    3.2077
 Total energy for state 10:                 -1973.59469576 au
    Multiplicity: Singlet
    Trans. Mom.: -0.0680 X   0.0036 Y   0.0986 Z
    Strength   :     0.0011291799
    D(170) --> V(  1) amplitude =  0.9697

 Excited state  11: excitation energy (eV) =    3.4136
 Total energy for state 11:                 -1973.58713062 au
    Multiplicity: Singlet
    Trans. Mom.:  0.2375 X   0.0180 Y   0.1494 Z
    Strength   :     0.0066118463
    D(171) --> V(  1) amplitude =  0.5236
    D(172) --> V(  1) amplitude =  0.7554

 Excited state  12: excitation energy (eV) =    3.4666
 Total energy for state 12:                 -1973.58518168 au
    Multiplicity: Singlet
    Trans. Mom.:  0.9749 X  -0.0009 Y   0.5318 Z
    Strength   :     0.1047466738
    D(167) --> V(  1) amplitude =  0.7179
    D(174) --> V(  2) amplitude =  0.5790

 ---------------------------------------------------

                    Orbital Energies (a.u.)
 --------------------------------------------------------------

 Alpha MOs
 -- Occupied --
-10.466 -10.466 -10.466 -10.466 -10.465 -10.465 -10.465 -10.465
-10.465 -10.465 -10.463 -10.463 -10.462 -10.462 -10.462 -10.462
-10.461 -10.461 -10.459 -10.459 -10.459 -10.459 -10.454 -10.454
-10.454 -10.453 -10.449 -10.449 -10.449 -10.448 -10.448 -10.448
-10.448 -10.447 -10.437 -10.436 -10.436 -10.436 -10.431 -10.431
-10.430 -10.430 -10.427 -10.427 -10.424 -10.424 -10.424 -10.424
-10.420 -10.418  -6.945  -6.942  -1.015  -1.015  -0.961  -0.957
 -0.957  -0.955  -0.934  -0.934  -0.907  -0.898  -0.872  -0.868
 -0.868  -0.868  -0.858  -0.857  -0.848  -0.848  -0.818  -0.814
 -0.813  -0.799  -0.780  -0.779  -0.759  -0.757  -0.757  -0.756
 -0.733  -0.730  -0.730  -0.719  -0.689  -0.683  -0.678  -0.668
 -0.650  -0.643  -0.639  -0.639  -0.638  -0.636  -0.597  -0.592
 -0.590  -0.588  -0.583  -0.576  -0.575  -0.551  -0.546  -0.542
 -0.541  -0.540  -0.527  -0.526  -0.521  -0.509  -0.502  -0.500
 -0.495  -0.494  -0.493  -0.486  -0.485  -0.485  -0.480  -0.480
 -0.479  -0.478  -0.475  -0.467  -0.465  -0.464  -0.463  -0.463
 -0.463  -0.460  -0.455  -0.454  -0.449  -0.448  -0.445  -0.443
 -0.442  -0.439  -0.433  -0.430  -0.426  -0.422  -0.416  -0.411
 -0.411  -0.401  -0.399  -0.397  -0.397  -0.394  -0.390  -0.388
 -0.383  -0.379  -0.379  -0.378  -0.377  -0.367  -0.354  -0.350
 -0.349  -0.335  -0.324  -0.318  -0.297  -0.297  -0.278  -0.273
 -0.273  -0.266  -0.263  -0.263  -0.256  -0.251

          Ground-State Mulliken Net Atomic Charges

     Atom                 Charge (a.u.)
  ----------------------------------------
      1 C                    -0.156772
      2 C                    -0.387394
      3 H                     0.245892
      4 C                     0.082475
      5 C                     0.193637
      6 C                    -0.385297
      7 H                     0.243676
      8 C                    -0.223038
      9 H                     0.247602
     10 C                    -0.343735
     11 H                     0.243838
     12 C                    -0.075450
     13 C                     0.230677
     14 C                     0.186780
     15 C                    -0.379060
     16 H                     0.243509
     17 C                    -0.224332
     18 H                     0.247799
     19 C                    -0.341669
     20 H                     0.243739
     21 C                     0.075765
     22 C                    -0.385943
     23 H                     0.244336
     24 C                    -0.155237
     25 B                     0.685529
     26 C                    -0.157227
     27 C                    -0.389126
     28 H                     0.244542
     29 C                     0.083655
     30 C                     0.193617
     31 C                    -0.385367
     32 H                     0.243695
     33 C                    -0.223158
     34 H                     0.247583
     35 C                    -0.344243
     36 H                     0.244017
     37 C                    -0.074386
     38 C                     0.232084
     39 C                     0.184124
     40 C                    -0.377823
     41 H                     0.243555
     42 C                    -0.224253
     43 H                     0.247908
     44 C                    -0.342063
     45 H                     0.243628
     46 C                     0.075517
     47 C                    -0.385790
     48 H                     0.243490
     49 C                    -0.154934
     50 B                     0.689079
     51 C                    -0.225485
     52 C                     0.055615
     53 C                    -0.362965
     54 H                     0.215560
     55 C                     0.116519
     56 C                    -0.354668
     57 H                     0.214643
     58 C                     0.057817
     59 C                    -0.717642
     60 H                     0.233824
     61 H                     0.234226
     62 H                     0.237275
     63 C                    -0.767477
     64 H                     0.244391
     65 H                     0.245959
     66 H                     0.245969
     67 C                    -0.769222
     68 H                     0.244912
     69 H                     0.246286
     70 H                     0.246397
     71 C                    -0.223144
     72 C                     0.053451
     73 C                    -0.360980
     74 H                     0.215849
     75 C                     0.117032
     76 C                    -0.353294
     77 H                     0.215044
     78 C                     0.052792
     79 C                    -0.718549
     80 H                     0.234195
     81 H                     0.235245
     82 H                     0.236845
     83 C                    -0.766955
     84 H                     0.244616
     85 H                     0.245740
     86 H                     0.245535
     87 C                    -0.767009
     88 H                     0.244679
     89 H                     0.245916
     90 H                     0.245610
  ----------------------------------------
  Sum of atomic charges =    -0.000000

                    Cartesian Multipole Moments
 -----------------------------------------------------------------
    Charge (ESU x 10^10)
                -0.0000
    Dipole Moment (Debye)
         X      -0.0543      Y       0.0114      Z      -0.0443
       Tot       0.0710
    Quadrupole Moments (Debye-Ang)
        XX    -251.8156     XY      -0.6405     YY    -302.0039
        XZ      -8.5453     YZ      -0.3036     ZZ    -242.1715

 Total job time:  12750.42s(wall), 40482.36s(cpu)
        *  Thank you very much for using Q-Chem.  Have a nice day.  *
