 Q-Chem 5.0, Q-Chem, Inc., Pleasanton, CA (2017)
 Q-Chem 5.0.1 for Intel X86 EM64T Linux

User input:
--------------------------------------------------------------
$solvent
dielectric      4.33
dielectric_infi 1.83
$end

$rem
threads 8
jobtype	sp
method PBEh-3c
basis def2-mSVP
mem_static	1024
mem_total	14000
sym_ignore	true
cis_n_roots             2
cis_singlets            false
cis_triplets		true
rpa                     false
calc_soc 		true
cis_moments             true
cis_relaxed_density	true
solvent_method		pcm
$end

$pcm
StateSpecific   1
ChargeSeparation Excited
$end

$molecule
read t1opt.mol
$end

--------------------------------------------------------------

   14   -1973.7171264553      8.69E-09 Convergence criterion met
 Total energy in the final basis set = -1973.71712646
 Total job time:  4869.57s(wall), 12569.30s(cpu)
        *  Thank you very much for using Q-Chem.  Have a nice day.  *
 Q-Chem 5.0, Q-Chem, Inc., Pleasanton, CA (2017)
 Q-Chem 5.0.1 for Intel X86 EM64T Linux

User input:
--------------------------------------------------------------
$rem
threads 8
jobtype sp
method PBEh-3c
basis def2-mSVP
mem_static      1024
mem_total       14000
sym_ignore      true
cis_n_roots             6
cis_singlets            true
cis_triplets            true
rpa                     false
calc_soc                true
cis_moments             true
cis_relaxed_density     true
solvent_method          pcm
$end

$molecule
read
$end

$pcm
statespecific           Marcus
$end

$solvent
dielectric      4.33
dielectric_infi 1.83
$end

--------------------------------------------------------------

             Standard Nuclear Orientation (Angstroms)
    I     Atom           X                Y                Z
 ----------------------------------------------------------------
    1      C       0.0000000000     0.0000000000     0.0000000000
    2      C       0.0000000000     0.0000000000     1.3988720000
    3      H       0.9448561229     0.0000000000     1.9315289027
    4      C      -1.1863498739    -0.0405783022     2.0879564297
    5      C      -1.4547527786    -0.1226899322     3.5055817794
    6      C      -0.6757023209    -0.1525614092     4.6388409563
    7      H       0.4036854380    -0.0843646429     4.5913535501
    8      C      -1.3150435106    -0.2841644343     5.8877104935
    9      H      -0.7058158779    -0.3075240141     6.7819043927
   10      C      -2.6831092951    -0.3918214811     6.0099752794
   11      H      -3.1282606283    -0.5000247731     6.9914144190
   12      C      -2.8548316420    -0.2246693055     3.6378766922
   13      C      -3.5069304616    -0.3691041915     4.8591157874
   14      C      -3.5013198385    -0.1987915100     2.3824601561
   15      C      -4.8694459126    -0.3231901992     2.3570485111
   16      H      -5.4245372766    -0.3204149902     1.4280408782
   17      C      -5.5574373376    -0.4681433420     3.5813179363
   18      H      -6.6344519811    -0.5694208678     3.5575990591
   19      C      -4.9148600867    -0.4914724399     4.7989801481
   20      H      -5.4874471804    -0.6101486609     5.7105334821
   21      C      -2.4523088015    -0.0754173073     1.3824548818
   22      C      -2.4689911387    -0.0303035481     0.0081593470
   23      H      -3.4081413274    -0.0456732966    -0.5334967102
   24      C      -1.2635856471     0.0061264972    -0.7155091596
   25      B       1.3352262812    -0.0887559931    -0.7494116339
   26      C       1.3124724207    -0.1659870551    -2.2805842942
   27      C       2.5096081768    -0.3443516172    -2.9794460152
   28      H       3.4422486204    -0.4008711878    -2.4283421561
   29      C       2.4983912269    -0.4762685594    -4.3475620897
   30      C       3.5615709382    -0.7418334465    -5.2839095792
   31      C       4.9179333437    -0.9521688508    -5.1754719528
   32      H       5.4265874010    -0.9158466009    -4.2203918295
   33      C       5.6440351004    -1.2302762926    -6.3496149672
   34      H       6.7103474415    -1.3984771849    -6.2716039655
   35      C       5.0473770933    -1.3019332902    -7.5907215446
   36      H       5.6500501949    -1.5243701093    -8.4625292704
   37      C       2.9566678706    -0.8169138837    -6.5583037233
   38      C       3.6524599260    -1.0951771284    -7.7298960350
   39      C       1.5600702340    -0.6126057278    -6.4873883108
   40      C       0.8305419352    -0.6834962312    -7.6499578512
   41      H      -0.2426000965    -0.5440831050    -7.6573425839
   42      C       1.5129154715    -0.9523329149    -8.8546295536
   43      H       0.9396038175    -1.0079839464    -9.7705701642
   44      C       2.8746761036    -1.1542436622    -8.9110311300
   45      H       3.3487518326    -1.3650423537    -9.8615398712
   46      C       1.2477357108    -0.4022129489    -5.0875134054
   47      C       0.0636742594    -0.2149957647    -4.4130901927
   48      H      -0.8762233579    -0.1742706065    -4.9517704186
   49      C       0.0528297966    -0.1091102842    -3.0122531471
   50      B      -1.2808273351    -0.0037985619    -2.2526394242
   51      C      -2.6450873987     0.0447014383    -3.0328266837
   52      C      -3.2245146242     1.2724613240    -3.3645466208
   53      C      -4.4281663779     1.3065910559    -4.0614810908
   54      H      -4.8656259445     2.2663435671    -4.3160838339
   55      C      -5.0790723232     0.1405510344    -4.4391528772
   56      C      -4.4996721656    -1.0757996927    -4.0958785800
   57      H      -4.9975960236    -1.9986722191    -4.3771660160
   58      C      -3.2986317885    -1.1386100350    -3.4019643970
   59      C      -6.3696258827     0.1789501235    -5.2049030230
   60      H      -6.7338529648     1.1984293200    -5.3272624481
   61      H      -7.1510549326    -0.3924235617    -4.7015643976
   62      H      -6.2524894485    -0.2483212479    -6.2026235934
   63      C      -2.5430051471     2.5510821990    -2.9629211546
   64      H      -3.0847925642     3.4278818047    -3.3171609682
   65      H      -1.5285324275     2.6070961176    -3.3636236753
   66      H      -2.4584304867     2.6337200762    -1.8769848976
   67      C      -2.6979656261    -2.4707794239    -3.0458159859
   68      H      -3.3491363714    -3.2964288103    -3.3327587529
   69      H      -2.5144759210    -2.5536627779    -1.9723618697
   70      H      -1.7364283776    -2.6241270721    -3.5411610137
   71      C       2.6906042461    -0.1752135860     0.0501106592
   72      C       3.1991585604    -1.4196443113     0.4390268069
   73      C       4.3923730107    -1.4914589273     1.1508731944
   74      H       4.7751458718    -2.4641540613     1.4427881653
   75      C       5.1032439214    -0.3512663390     1.4957001571
   76      C       4.5904649206     0.8810903509     1.1073067154
   77      H       5.1316504045     1.7860214758     1.3652962022
   78      C       3.4026393929     0.9811832005     0.3946858573
   79      C       6.3828061382    -0.4390165661     2.2763714109
   80      H       6.7209912601    -1.4699438768     2.3768709865
   81      H       7.1843697165     0.1258572359     1.7983863876
   82      H       6.2630516141    -0.0357210240     3.2838616669
   83      C       2.8699322806     2.3290088319    -0.0027609674
   84      H       3.5516356771     3.1323102905     0.2762623244
   85      H       2.7075720202     2.3917448431    -1.0807439087
   86      H       1.9083998936     2.5315106665     0.4744513713
   87      C       2.4573696831    -2.6821461626     0.0958415365
   88      H       2.9864228459    -3.5680257936     0.4472619848
   89      H       2.3193126559    -2.7889956899    -0.9820376967
   90      H       1.4621693042    -2.6951702379     0.5455327964
 ----------------------------------------------------------------

   15   -1973.7170129629      5.13E-09 Convergence criterion met
 Total energy in the final basis set = -1973.71701296

         TDDFT/TDA Excitation Energies
 ---------------------------------------------------

 Excited state   1: excitation energy (eV) =    2.0214
 Total energy for state  1:                 -1973.64272792 au
    Multiplicity: Triplet
    Trans. Mom.:  0.0000 X   0.0000 Y   0.0000 Z
    Strength   :     0.0000000000
    D(167) --> V(  2) amplitude = -0.2544
    D(174) --> V(  1) amplitude =  0.9230

 Excited state   2: excitation energy (eV) =    2.3730
 Total energy for state  2:                 -1973.62980634 au
    Multiplicity: Triplet
    Trans. Mom.:  0.0000 X   0.0000 Y   0.0000 Z
    Strength   :     0.0000000000
    D(172) --> V(  2) amplitude =  0.4597
    D(173) --> V(  1) amplitude =  0.8018

 Excited state   3: excitation energy (eV) =    2.4380
 Total energy for state  3:                 -1973.62741891 au
    Multiplicity: Triplet
    Trans. Mom.:  0.0000 X   0.0000 Y   0.0000 Z
    Strength   :     0.0000000000
    D(172) --> V(  1) amplitude =  0.7115
    D(172) --> V(  4) amplitude = -0.2166
    D(173) --> V(  2) amplitude =  0.5260

 Excited state   4: excitation energy (eV) =    2.5337
 Total energy for state  4:                 -1973.62389977 au
    Multiplicity: Triplet
    Trans. Mom.:  0.0000 X   0.0000 Y   0.0000 Z
    Strength   :     0.0000000000
    D(167) --> V(  1) amplitude =  0.7195
    D(174) --> V(  2) amplitude = -0.5521

 Excited state   5: excitation energy (eV) =    2.6950
 Total energy for state  5:                 -1973.61797217 au
    Multiplicity: Singlet
    Trans. Mom.: -0.1178 X   0.0392 Y   0.1263 Z
    Strength   :     0.0020704239
    D(174) --> V(  1) amplitude =  0.9660

 Excited state   6: excitation energy (eV) =    3.0338
 Total energy for state  6:                 -1973.60552290 au
    Multiplicity: Triplet
    Trans. Mom.:  0.0000 X   0.0000 Y   0.0000 Z
    Strength   :     0.0000000000
    D(171) --> V(  1) amplitude =  0.9179
    D(172) --> V(  1) amplitude =  0.2225

 Excited state   7: excitation energy (eV) =    3.1011
 Total energy for state  7:                 -1973.60304976 au
    Multiplicity: Singlet
    Trans. Mom.:  1.9856 X  -0.2067 Y  -3.4638 Z
    Strength   :     1.2143419076
    D(173) --> V(  1) amplitude =  0.9285

 Excited state   8: excitation energy (eV) =    3.1096
 Total energy for state  8:                 -1973.60273615 au
    Multiplicity: Singlet
    Trans. Mom.:  0.4170 X  -0.0339 Y  -0.8195 Z
    Strength   :     0.0645006793
    D(171) --> V(  1) amplitude =  0.9079
    D(172) --> V(  1) amplitude =  0.2446

 Excited state   9: excitation energy (eV) =    3.1917
 Total energy for state  9:                 -1973.59972141 au
    Multiplicity: Triplet
    Trans. Mom.:  0.0000 X   0.0000 Y   0.0000 Z
    Strength   :     0.0000000000
    D(170) --> V(  1) amplitude =  0.9598

 Excited state  10: excitation energy (eV) =    3.2253
 Total energy for state 10:                 -1973.59848644 au
    Multiplicity: Singlet
    Trans. Mom.:  0.0627 X  -0.0160 Y  -0.2521 Z
    Strength   :     0.0053546189
    D(170) --> V(  1) amplitude =  0.9685

 Excited state  11: excitation energy (eV) =    3.4241
 Total energy for state 11:                 -1973.59118052 au
    Multiplicity: Singlet
    Trans. Mom.: -0.2007 X   0.3132 Y  -0.1568 Z
    Strength   :     0.0136683966
    D(171) --> V(  1) amplitude = -0.2417
    D(172) --> V(  1) amplitude =  0.8948

 Excited state  12: excitation energy (eV) =    3.4859
 Total energy for state 12:                 -1973.58890850 au
    Multiplicity: Singlet
    Trans. Mom.: -0.9279 X  -0.0210 Y  -0.5068 Z
    Strength   :     0.0955049517
    D(167) --> V(  1) amplitude =  0.7289
    D(174) --> V(  2) amplitude = -0.5752

 ---------------------------------------------------

                    Orbital Energies (a.u.)
 --------------------------------------------------------------

 Alpha MOs
 -- Occupied --
-10.468 -10.468 -10.466 -10.466 -10.466 -10.466 -10.466 -10.466
-10.466 -10.465 -10.463 -10.463 -10.463 -10.463 -10.462 -10.462
-10.461 -10.461 -10.458 -10.458 -10.458 -10.458 -10.456 -10.456
-10.454 -10.454 -10.451 -10.451 -10.451 -10.450 -10.449 -10.449
-10.449 -10.449 -10.439 -10.438 -10.437 -10.437 -10.432 -10.432
-10.432 -10.432 -10.427 -10.427 -10.426 -10.426 -10.426 -10.425
-10.421 -10.420  -6.946  -6.945  -1.017  -1.016  -0.963  -0.959
 -0.958  -0.957  -0.935  -0.935  -0.908  -0.899  -0.874  -0.870
 -0.870  -0.869  -0.859  -0.858  -0.848  -0.848  -0.819  -0.815
 -0.813  -0.800  -0.781  -0.780  -0.760  -0.758  -0.758  -0.757
 -0.734  -0.731  -0.730  -0.719  -0.689  -0.684  -0.679  -0.669
 -0.651  -0.644  -0.640  -0.640  -0.639  -0.638  -0.597  -0.592
 -0.592  -0.588  -0.583  -0.577  -0.575  -0.552  -0.548  -0.542
 -0.542  -0.541  -0.527  -0.527  -0.522  -0.510  -0.503  -0.501
 -0.496  -0.495  -0.493  -0.487  -0.487  -0.486  -0.481  -0.481
 -0.480  -0.479  -0.476  -0.467  -0.465  -0.465  -0.464  -0.464
 -0.464  -0.461  -0.456  -0.456  -0.450  -0.449  -0.446  -0.444
 -0.442  -0.440  -0.434  -0.431  -0.427  -0.424  -0.417  -0.412
 -0.412  -0.401  -0.399  -0.398  -0.397  -0.394  -0.391  -0.389
 -0.385  -0.381  -0.381  -0.380  -0.378  -0.368  -0.356  -0.351
 -0.350  -0.336  -0.326  -0.320  -0.298  -0.297  -0.280  -0.275
 -0.275  -0.268  -0.266  -0.264  -0.257  -0.252

          Ground-State Mulliken Net Atomic Charges

     Atom                 Charge (a.u.)
  ----------------------------------------
      1 C                    -0.154609
      2 C                    -0.382436
      3 H                     0.248315
      4 C                     0.064468
      5 C                     0.182869
      6 C                    -0.381746
      7 H                     0.250473
      8 C                    -0.231263
      9 H                     0.255328
     10 C                    -0.344061
     11 H                     0.252160
     12 C                    -0.072874
     13 C                     0.224561
     14 C                     0.184332
     15 C                    -0.390510
     16 H                     0.250395
     17 C                    -0.229069
     18 H                     0.254894
     19 C                    -0.347543
     20 H                     0.252473
     21 C                     0.090948
     22 C                    -0.394332
     23 H                     0.247062
     24 C                    -0.156321
     25 B                     0.680028
     26 C                    -0.153729
     27 C                    -0.384928
     28 H                     0.247715
     29 C                     0.065462
     30 C                     0.183866
     31 C                    -0.380001
     32 H                     0.251129
     33 C                    -0.230824
     34 H                     0.255511
     35 C                    -0.344656
     36 H                     0.252249
     37 C                    -0.075081
     38 C                     0.224675
     39 C                     0.184513
     40 C                    -0.386876
     41 H                     0.250849
     42 C                    -0.229806
     43 H                     0.255156
     44 C                    -0.347242
     45 H                     0.252525
     46 C                     0.086323
     47 C                    -0.391860
     48 H                     0.247169
     49 C                    -0.156174
     50 B                     0.682055
     51 C                    -0.219595
     52 C                     0.052542
     53 C                    -0.369525
     54 H                     0.222921
     55 C                     0.111892
     56 C                    -0.358992
     57 H                     0.221372
     58 C                     0.049333
     59 C                    -0.721376
     60 H                     0.237191
     61 H                     0.237493
     62 H                     0.238712
     63 C                    -0.772809
     64 H                     0.249148
     65 H                     0.246808
     66 H                     0.247050
     67 C                    -0.769020
     68 H                     0.248261
     69 H                     0.246116
     70 H                     0.246857
     71 C                    -0.225966
     72 C                     0.049603
     73 C                    -0.368600
     74 H                     0.222930
     75 C                     0.112107
     76 C                    -0.358093
     77 H                     0.221661
     78 C                     0.054534
     79 C                    -0.721243
     80 H                     0.237105
     81 H                     0.237352
     82 H                     0.239302
     83 C                    -0.769414
     84 H                     0.248463
     85 H                     0.246748
     86 H                     0.245479
     87 C                    -0.770363
     88 H                     0.248827
     89 H                     0.246800
     90 H                     0.246827
  ----------------------------------------
  Sum of atomic charges =    -0.000000

                    Cartesian Multipole Moments
 -----------------------------------------------------------------
    Charge (ESU x 10^10)
                -0.0000
    Dipole Moment (Debye)
         X       0.1280      Y      -1.0641      Z       0.0653
       Tot       1.0737
    Quadrupole Moments (Debye-Ang)
        XX    -250.0250     XY      -1.7671     YY    -299.7631
        XZ      -8.5252     YZ       4.8699     ZZ    -238.1177

 Total job time:  8620.16s(wall), 29073.02s(cpu)
        *  Thank you very much for using Q-Chem.  Have a nice day.  *
