 Q-Chem 5.0, Q-Chem, Inc., Pleasanton, CA (2017)
 Q-Chem 5.0.1 for Intel X86 EM64T Linux

User input:
--------------------------------------------------------------
$solvent
dielectric      8.93
dielectric_infi 2.03
$end

$rem
threads 8
jobtype	sp
method PBEh-3c
basis def2-mSVP
mem_static	1024
mem_total	14000
sym_ignore	true
cis_n_roots             2
cis_singlets            false
cis_triplets		true
rpa                     false
calc_soc 		true
cis_moments             true
cis_relaxed_density	true
solvent_method		pcm
$end

$pcm
StateSpecific   1
ChargeSeparation Excited
$end

$molecule
read t1opt.mol
$end

--------------------------------------------------------------

   14   -1973.7207562310      7.44E-09 Convergence criterion met
 Total energy in the final basis set = -1973.72075623
 Q-Chem 5.0, Q-Chem, Inc., Pleasanton, CA (2017)
 Q-Chem 5.0.1 for Intel X86 EM64T Linux

User input:
--------------------------------------------------------------
$rem
threads 8
jobtype sp
method PBEh-3c
basis def2-mSVP
mem_static      1024
mem_total       14000
sym_ignore      true
cis_n_roots             6
cis_singlets            true
cis_triplets            true
rpa                     false
calc_soc                true
cis_moments             true
cis_relaxed_density     true
solvent_method          pcm
$end

$molecule
read
$end

$pcm
statespecific           Marcus
$end

$solvent
dielectric      8.93
dielectric_infi 2.03
$end

--------------------------------------------------------------

             Standard Nuclear Orientation (Angstroms)
    I     Atom           X                Y                Z
 ----------------------------------------------------------------
    1      C       0.0000000000     0.0000000000     0.0000000000
    2      C       0.0000000000     0.0000000000     1.3988720000
    3      H       0.9448561229     0.0000000000     1.9315289027
    4      C      -1.1863498739    -0.0405783022     2.0879564297
    5      C      -1.4547527786    -0.1226899322     3.5055817794
    6      C      -0.6757023209    -0.1525614092     4.6388409563
    7      H       0.4036854380    -0.0843646429     4.5913535501
    8      C      -1.3150435106    -0.2841644343     5.8877104935
    9      H      -0.7058158779    -0.3075240141     6.7819043927
   10      C      -2.6831092951    -0.3918214811     6.0099752794
   11      H      -3.1282606283    -0.5000247731     6.9914144190
   12      C      -2.8548316420    -0.2246693055     3.6378766922
   13      C      -3.5069304616    -0.3691041915     4.8591157874
   14      C      -3.5013198385    -0.1987915100     2.3824601561
   15      C      -4.8694459126    -0.3231901992     2.3570485111
   16      H      -5.4245372766    -0.3204149902     1.4280408782
   17      C      -5.5574373376    -0.4681433420     3.5813179363
   18      H      -6.6344519811    -0.5694208678     3.5575990591
   19      C      -4.9148600867    -0.4914724399     4.7989801481
   20      H      -5.4874471804    -0.6101486609     5.7105334821
   21      C      -2.4523088015    -0.0754173073     1.3824548818
   22      C      -2.4689911387    -0.0303035481     0.0081593470
   23      H      -3.4081413274    -0.0456732966    -0.5334967102
   24      C      -1.2635856471     0.0061264972    -0.7155091596
   25      B       1.3352262812    -0.0887559931    -0.7494116339
   26      C       1.3124724207    -0.1659870551    -2.2805842942
   27      C       2.5096081768    -0.3443516172    -2.9794460152
   28      H       3.4422486204    -0.4008711878    -2.4283421561
   29      C       2.4983912269    -0.4762685594    -4.3475620897
   30      C       3.5615709382    -0.7418334465    -5.2839095792
   31      C       4.9179333437    -0.9521688508    -5.1754719528
   32      H       5.4265874010    -0.9158466009    -4.2203918295
   33      C       5.6440351004    -1.2302762926    -6.3496149672
   34      H       6.7103474415    -1.3984771849    -6.2716039655
   35      C       5.0473770933    -1.3019332902    -7.5907215446
   36      H       5.6500501949    -1.5243701093    -8.4625292704
   37      C       2.9566678706    -0.8169138837    -6.5583037233
   38      C       3.6524599260    -1.0951771284    -7.7298960350
   39      C       1.5600702340    -0.6126057278    -6.4873883108
   40      C       0.8305419352    -0.6834962312    -7.6499578512
   41      H      -0.2426000965    -0.5440831050    -7.6573425839
   42      C       1.5129154715    -0.9523329149    -8.8546295536
   43      H       0.9396038175    -1.0079839464    -9.7705701642
   44      C       2.8746761036    -1.1542436622    -8.9110311300
   45      H       3.3487518326    -1.3650423537    -9.8615398712
   46      C       1.2477357108    -0.4022129489    -5.0875134054
   47      C       0.0636742594    -0.2149957647    -4.4130901927
   48      H      -0.8762233579    -0.1742706065    -4.9517704186
   49      C       0.0528297966    -0.1091102842    -3.0122531471
   50      B      -1.2808273351    -0.0037985619    -2.2526394242
   51      C      -2.6450873987     0.0447014383    -3.0328266837
   52      C      -3.2245146242     1.2724613240    -3.3645466208
   53      C      -4.4281663779     1.3065910559    -4.0614810908
   54      H      -4.8656259445     2.2663435671    -4.3160838339
   55      C      -5.0790723232     0.1405510344    -4.4391528772
   56      C      -4.4996721656    -1.0757996927    -4.0958785800
   57      H      -4.9975960236    -1.9986722191    -4.3771660160
   58      C      -3.2986317885    -1.1386100350    -3.4019643970
   59      C      -6.3696258827     0.1789501235    -5.2049030230
   60      H      -6.7338529648     1.1984293200    -5.3272624481
   61      H      -7.1510549326    -0.3924235617    -4.7015643976
   62      H      -6.2524894485    -0.2483212479    -6.2026235934
   63      C      -2.5430051471     2.5510821990    -2.9629211546
   64      H      -3.0847925642     3.4278818047    -3.3171609682
   65      H      -1.5285324275     2.6070961176    -3.3636236753
   66      H      -2.4584304867     2.6337200762    -1.8769848976
   67      C      -2.6979656261    -2.4707794239    -3.0458159859
   68      H      -3.3491363714    -3.2964288103    -3.3327587529
   69      H      -2.5144759210    -2.5536627779    -1.9723618697
   70      H      -1.7364283776    -2.6241270721    -3.5411610137
   71      C       2.6906042461    -0.1752135860     0.0501106592
   72      C       3.1991585604    -1.4196443113     0.4390268069
   73      C       4.3923730107    -1.4914589273     1.1508731944
   74      H       4.7751458718    -2.4641540613     1.4427881653
   75      C       5.1032439214    -0.3512663390     1.4957001571
   76      C       4.5904649206     0.8810903509     1.1073067154
   77      H       5.1316504045     1.7860214758     1.3652962022
   78      C       3.4026393929     0.9811832005     0.3946858573
   79      C       6.3828061382    -0.4390165661     2.2763714109
   80      H       6.7209912601    -1.4699438768     2.3768709865
   81      H       7.1843697165     0.1258572359     1.7983863876
   82      H       6.2630516141    -0.0357210240     3.2838616669
   83      C       2.8699322806     2.3290088319    -0.0027609674
   84      H       3.5516356771     3.1323102905     0.2762623244
   85      H       2.7075720202     2.3917448431    -1.0807439087
   86      H       1.9083998936     2.5315106665     0.4744513713
   87      C       2.4573696831    -2.6821461626     0.0958415365
   88      H       2.9864228459    -3.5680257936     0.4472619848
   89      H       2.3193126559    -2.7889956899    -0.9820376967
   90      H       1.4621693042    -2.6951702379     0.5455327964
 ----------------------------------------------------------------

   15   -1973.7206145336      5.01E-09 Convergence criterion met
 Total energy in the final basis set = -1973.72061453

         TDDFT/TDA Excitation Energies
 ---------------------------------------------------

 Excited state   1: excitation energy (eV) =    2.0270
 Total energy for state  1:                 -1973.64612240 au
    Multiplicity: Triplet
    Trans. Mom.:  0.0000 X   0.0000 Y   0.0000 Z
    Strength   :     0.0000000000
    D(167) --> V(  2) amplitude = -0.2532
    D(174) --> V(  1) amplitude =  0.9223

 Excited state   2: excitation energy (eV) =    2.3716
 Total energy for state  2:                 -1973.63345940 au
    Multiplicity: Triplet
    Trans. Mom.:  0.0000 X   0.0000 Y   0.0000 Z
    Strength   :     0.0000000000
    D(172) --> V(  2) amplitude =  0.4629
    D(173) --> V(  1) amplitude =  0.8033

 Excited state   3: excitation energy (eV) =    2.4376
 Total energy for state  3:                 -1973.63103456 au
    Multiplicity: Triplet
    Trans. Mom.:  0.0000 X   0.0000 Y   0.0000 Z
    Strength   :     0.0000000000
    D(172) --> V(  1) amplitude =  0.7230
    D(172) --> V(  4) amplitude = -0.2199
    D(173) --> V(  2) amplitude =  0.5241

 Excited state   4: excitation energy (eV) =    2.5406
 Total energy for state  4:                 -1973.62724831 au
    Multiplicity: Triplet
    Trans. Mom.:  0.0000 X   0.0000 Y   0.0000 Z
    Strength   :     0.0000000000
    D(167) --> V(  1) amplitude =  0.7216
    D(174) --> V(  2) amplitude = -0.5497

 Excited state   5: excitation energy (eV) =    2.6976
 Total energy for state  5:                 -1973.62148009 au
    Multiplicity: Singlet
    Trans. Mom.: -0.1247 X   0.0407 Y   0.1336 Z
    Strength   :     0.0023164116
    D(174) --> V(  1) amplitude =  0.9652

 Excited state   6: excitation energy (eV) =    3.0349
 Total energy for state  6:                 -1973.60908548 au
    Multiplicity: Triplet
    Trans. Mom.:  0.0000 X   0.0000 Y   0.0000 Z
    Strength   :     0.0000000000
    D(171) --> V(  1) amplitude =  0.9300

 Excited state   7: excitation energy (eV) =    3.0866
 Total energy for state  7:                 -1973.60718364 au
    Multiplicity: Singlet
    Trans. Mom.:  2.0622 X  -0.2139 Y  -3.6118 Z
    Strength   :     1.3115416931
    D(173) --> V(  1) amplitude =  0.9494

 Excited state   8: excitation energy (eV) =    3.1103
 Total energy for state  8:                 -1973.60631296 au
    Multiplicity: Singlet
    Trans. Mom.:  0.1252 X  -0.0029 Y  -0.3100 Z
    Strength   :     0.0085163709
    D(171) --> V(  1) amplitude =  0.9410

 Excited state   9: excitation energy (eV) =    3.1925
 Total energy for state  9:                 -1973.60329093 au
    Multiplicity: Triplet
    Trans. Mom.:  0.0000 X   0.0000 Y   0.0000 Z
    Strength   :     0.0000000000
    D(170) --> V(  1) amplitude =  0.9608

 Excited state  10: excitation energy (eV) =    3.2260
 Total energy for state 10:                 -1973.60205965 au
    Multiplicity: Singlet
    Trans. Mom.:  0.0497 X  -0.0150 Y  -0.2324 Z
    Strength   :     0.0044799577
    D(170) --> V(  1) amplitude =  0.9695

 Excited state  11: excitation energy (eV) =    3.4104
 Total energy for state 11:                 -1973.59528382 au
    Multiplicity: Singlet
    Trans. Mom.: -0.1671 X   0.3222 Y  -0.1465 Z
    Strength   :     0.0128009741
    D(172) --> V(  1) amplitude =  0.9126

 Excited state  12: excitation energy (eV) =    3.4899
 Total energy for state 12:                 -1973.59236209 au
    Multiplicity: Singlet
    Trans. Mom.: -0.9591 X  -0.0093 Y  -0.5283 Z
    Strength   :     0.1025250992
    D(167) --> V(  1) amplitude =  0.7419
    D(174) --> V(  2) amplitude = -0.5671

 ---------------------------------------------------

                    Orbital Energies (a.u.)
 --------------------------------------------------------------

 Alpha MOs
 -- Occupied --
-10.469 -10.469 -10.467 -10.467 -10.466 -10.466 -10.466 -10.466
-10.466 -10.466 -10.464 -10.464 -10.463 -10.463 -10.462 -10.462
-10.462 -10.462 -10.458 -10.458 -10.458 -10.458 -10.458 -10.457
-10.456 -10.455 -10.452 -10.452 -10.452 -10.452 -10.450 -10.450
-10.450 -10.450 -10.440 -10.440 -10.439 -10.438 -10.433 -10.433
-10.433 -10.433 -10.427 -10.427 -10.427 -10.427 -10.427 -10.426
-10.423 -10.422  -6.947  -6.946  -1.018  -1.017  -0.964  -0.960
 -0.959  -0.958  -0.935  -0.935  -0.909  -0.900  -0.875  -0.871
 -0.871  -0.871  -0.860  -0.859  -0.849  -0.848  -0.820  -0.816
 -0.814  -0.801  -0.781  -0.781  -0.761  -0.759  -0.759  -0.758
 -0.735  -0.731  -0.730  -0.720  -0.690  -0.685  -0.679  -0.670
 -0.652  -0.645  -0.641  -0.641  -0.640  -0.639  -0.598  -0.592
 -0.592  -0.589  -0.584  -0.577  -0.576  -0.553  -0.548  -0.543
 -0.543  -0.542  -0.528  -0.527  -0.523  -0.511  -0.503  -0.502
 -0.497  -0.496  -0.494  -0.488  -0.488  -0.487  -0.482  -0.481
 -0.480  -0.480  -0.476  -0.468  -0.466  -0.466  -0.465  -0.465
 -0.464  -0.461  -0.457  -0.456  -0.451  -0.450  -0.446  -0.444
 -0.442  -0.441  -0.434  -0.432  -0.428  -0.425  -0.418  -0.413
 -0.412  -0.402  -0.399  -0.398  -0.398  -0.394  -0.392  -0.389
 -0.386  -0.382  -0.382  -0.380  -0.379  -0.369  -0.357  -0.353
 -0.351  -0.338  -0.327  -0.321  -0.299  -0.298  -0.281  -0.277
 -0.277  -0.269  -0.267  -0.265  -0.258  -0.254

          Ground-State Mulliken Net Atomic Charges

     Atom                 Charge (a.u.)
  ----------------------------------------
      1 C                    -0.154914
      2 C                    -0.383107
      3 H                     0.250326
      4 C                     0.061984
      5 C                     0.179811
      6 C                    -0.383459
      7 H                     0.255287
      8 C                    -0.235451
      9 H                     0.260480
     10 C                    -0.345859
     11 H                     0.257970
     12 C                    -0.073711
     13 C                     0.219909
     14 C                     0.181218
     15 C                    -0.392175
     16 H                     0.255231
     17 C                    -0.233327
     18 H                     0.260009
     19 C                    -0.349297
     20 H                     0.258266
     21 C                     0.088385
     22 C                    -0.394992
     23 H                     0.248988
     24 C                    -0.156555
     25 B                     0.677418
     26 C                    -0.153910
     27 C                    -0.385647
     28 H                     0.249742
     29 C                     0.063006
     30 C                     0.180822
     31 C                    -0.381659
     32 H                     0.255944
     33 C                    -0.234999
     34 H                     0.260645
     35 C                    -0.346423
     36 H                     0.258036
     37 C                    -0.075874
     38 C                     0.220074
     39 C                     0.181442
     40 C                    -0.388514
     41 H                     0.255690
     42 C                    -0.234059
     43 H                     0.260263
     44 C                    -0.349003
     45 H                     0.258295
     46 C                     0.083812
     47 C                    -0.392537
     48 H                     0.249143
     49 C                    -0.156462
     50 B                     0.679417
     51 C                    -0.219187
     52 C                     0.050214
     53 C                    -0.373617
     54 H                     0.227644
     55 C                     0.108497
     56 C                    -0.362286
     57 H                     0.225932
     58 C                     0.047596
     59 C                    -0.723193
     60 H                     0.239148
     61 H                     0.239092
     62 H                     0.240250
     63 C                    -0.774599
     64 H                     0.252035
     65 H                     0.247042
     66 H                     0.247129
     67 C                    -0.770924
     68 H                     0.251193
     69 H                     0.246240
     70 H                     0.247097
     71 C                    -0.225551
     72 C                     0.047774
     73 C                    -0.372572
     74 H                     0.227678
     75 C                     0.108770
     76 C                    -0.361491
     77 H                     0.226172
     78 C                     0.052425
     79 C                    -0.723058
     80 H                     0.239111
     81 H                     0.238926
     82 H                     0.240803
     83 C                    -0.771289
     84 H                     0.251352
     85 H                     0.246854
     86 H                     0.245803
     87 C                    -0.772229
     88 H                     0.251763
     89 H                     0.246962
     90 H                     0.246817
  ----------------------------------------
  Sum of atomic charges =    -0.000000

                    Cartesian Multipole Moments
 -----------------------------------------------------------------
    Charge (ESU x 10^10)
                -0.0000
    Dipole Moment (Debye)
         X       0.1397      Y      -1.1295      Z       0.0679
       Tot       1.1401
    Quadrupole Moments (Debye-Ang)
        XX    -247.4226     XY      -1.8707     YY    -299.3813
        XZ      -9.3100     YZ       5.1401     ZZ    -234.5288

 Total job time:  8664.16s(wall), 28625.01s(cpu)
        *  Thank you very much for using Q-Chem.  Have a nice day.  *
