 Q-Chem 5.0, Q-Chem, Inc., Pleasanton, CA (2017)
 Q-Chem 5.0.1 for Intel X86 EM64T Linux

User input:
--------------------------------------------------------------
$solvent
dielectric      2.03
dielectric_infi 2.02
$end

$rem
threads 8
jobtype	sp
method PBEh-3c
basis def2-mSVP
mem_static	1024
mem_total	14000
sym_ignore	true
cis_n_roots             2
cis_singlets            false
cis_triplets		true
rpa                     false
calc_soc 		true
cis_moments             true
cis_relaxed_density	true
solvent_method		pcm
$end

$pcm
StateSpecific   1
ChargeSeparation Excited
$end

$molecule
read t1opt.mol
$end

--------------------------------------------------------------

   15   -1973.7096444187      5.09E-09 Convergence criterion met
 Total energy in the final basis set = -1973.70964442
 Total job time:  4712.75s(wall), 11716.24s(cpu)
        *  Thank you very much for using Q-Chem.  Have a nice day.  *
 Q-Chem 5.0, Q-Chem, Inc., Pleasanton, CA (2017)
 Q-Chem 5.0.1 for Intel X86 EM64T Linux

User input:
--------------------------------------------------------------
$rem
threads 8
jobtype sp
method PBEh-3c
basis def2-mSVP
mem_static      1024
mem_total       14000
sym_ignore      true
cis_n_roots             6
cis_singlets            true
cis_triplets            true
rpa                     false
calc_soc                true
cis_moments             true
cis_relaxed_density     true
solvent_method          pcm
$end

$molecule
read
$end

$pcm
statespecific           Marcus
$end

$solvent
dielectric      2.03
dielectric_infi 2.02
$end

--------------------------------------------------------------

             Standard Nuclear Orientation (Angstroms)
    I     Atom           X                Y                Z
 ----------------------------------------------------------------
    1      C       0.0000000000     0.0000000000     0.0000000000
    2      C       0.0000000000     0.0000000000     1.3988720000
    3      H       0.9448561229     0.0000000000     1.9315289027
    4      C      -1.1863498739    -0.0405783022     2.0879564297
    5      C      -1.4547527786    -0.1226899322     3.5055817794
    6      C      -0.6757023209    -0.1525614092     4.6388409563
    7      H       0.4036854380    -0.0843646429     4.5913535501
    8      C      -1.3150435106    -0.2841644343     5.8877104935
    9      H      -0.7058158779    -0.3075240141     6.7819043927
   10      C      -2.6831092951    -0.3918214811     6.0099752794
   11      H      -3.1282606283    -0.5000247731     6.9914144190
   12      C      -2.8548316420    -0.2246693055     3.6378766922
   13      C      -3.5069304616    -0.3691041915     4.8591157874
   14      C      -3.5013198385    -0.1987915100     2.3824601561
   15      C      -4.8694459126    -0.3231901992     2.3570485111
   16      H      -5.4245372766    -0.3204149902     1.4280408782
   17      C      -5.5574373376    -0.4681433420     3.5813179363
   18      H      -6.6344519811    -0.5694208678     3.5575990591
   19      C      -4.9148600867    -0.4914724399     4.7989801481
   20      H      -5.4874471804    -0.6101486609     5.7105334821
   21      C      -2.4523088015    -0.0754173073     1.3824548818
   22      C      -2.4689911387    -0.0303035481     0.0081593470
   23      H      -3.4081413274    -0.0456732966    -0.5334967102
   24      C      -1.2635856471     0.0061264972    -0.7155091596
   25      B       1.3352262812    -0.0887559931    -0.7494116339
   26      C       1.3124724207    -0.1659870551    -2.2805842942
   27      C       2.5096081768    -0.3443516172    -2.9794460152
   28      H       3.4422486204    -0.4008711878    -2.4283421561
   29      C       2.4983912269    -0.4762685594    -4.3475620897
   30      C       3.5615709382    -0.7418334465    -5.2839095792
   31      C       4.9179333437    -0.9521688508    -5.1754719528
   32      H       5.4265874010    -0.9158466009    -4.2203918295
   33      C       5.6440351004    -1.2302762926    -6.3496149672
   34      H       6.7103474415    -1.3984771849    -6.2716039655
   35      C       5.0473770933    -1.3019332902    -7.5907215446
   36      H       5.6500501949    -1.5243701093    -8.4625292704
   37      C       2.9566678706    -0.8169138837    -6.5583037233
   38      C       3.6524599260    -1.0951771284    -7.7298960350
   39      C       1.5600702340    -0.6126057278    -6.4873883108
   40      C       0.8305419352    -0.6834962312    -7.6499578512
   41      H      -0.2426000965    -0.5440831050    -7.6573425839
   42      C       1.5129154715    -0.9523329149    -8.8546295536
   43      H       0.9396038175    -1.0079839464    -9.7705701642
   44      C       2.8746761036    -1.1542436622    -8.9110311300
   45      H       3.3487518326    -1.3650423537    -9.8615398712
   46      C       1.2477357108    -0.4022129489    -5.0875134054
   47      C       0.0636742594    -0.2149957647    -4.4130901927
   48      H      -0.8762233579    -0.1742706065    -4.9517704186
   49      C       0.0528297966    -0.1091102842    -3.0122531471
   50      B      -1.2808273351    -0.0037985619    -2.2526394242
   51      C      -2.6450873987     0.0447014383    -3.0328266837
   52      C      -3.2245146242     1.2724613240    -3.3645466208
   53      C      -4.4281663779     1.3065910559    -4.0614810908
   54      H      -4.8656259445     2.2663435671    -4.3160838339
   55      C      -5.0790723232     0.1405510344    -4.4391528772
   56      C      -4.4996721656    -1.0757996927    -4.0958785800
   57      H      -4.9975960236    -1.9986722191    -4.3771660160
   58      C      -3.2986317885    -1.1386100350    -3.4019643970
   59      C      -6.3696258827     0.1789501235    -5.2049030230
   60      H      -6.7338529648     1.1984293200    -5.3272624481
   61      H      -7.1510549326    -0.3924235617    -4.7015643976
   62      H      -6.2524894485    -0.2483212479    -6.2026235934
   63      C      -2.5430051471     2.5510821990    -2.9629211546
   64      H      -3.0847925642     3.4278818047    -3.3171609682
   65      H      -1.5285324275     2.6070961176    -3.3636236753
   66      H      -2.4584304867     2.6337200762    -1.8769848976
   67      C      -2.6979656261    -2.4707794239    -3.0458159859
   68      H      -3.3491363714    -3.2964288103    -3.3327587529
   69      H      -2.5144759210    -2.5536627779    -1.9723618697
   70      H      -1.7364283776    -2.6241270721    -3.5411610137
   71      C       2.6906042461    -0.1752135860     0.0501106592
   72      C       3.1991585604    -1.4196443113     0.4390268069
   73      C       4.3923730107    -1.4914589273     1.1508731944
   74      H       4.7751458718    -2.4641540613     1.4427881653
   75      C       5.1032439214    -0.3512663390     1.4957001571
   76      C       4.5904649206     0.8810903509     1.1073067154
   77      H       5.1316504045     1.7860214758     1.3652962022
   78      C       3.4026393929     0.9811832005     0.3946858573
   79      C       6.3828061382    -0.4390165661     2.2763714109
   80      H       6.7209912601    -1.4699438768     2.3768709865
   81      H       7.1843697165     0.1258572359     1.7983863876
   82      H       6.2630516141    -0.0357210240     3.2838616669
   83      C       2.8699322806     2.3290088319    -0.0027609674
   84      H       3.5516356771     3.1323102905     0.2762623244
   85      H       2.7075720202     2.3917448431    -1.0807439087
   86      H       1.9083998936     2.5315106665     0.4744513713
   87      C       2.4573696831    -2.6821461626     0.0958415365
   88      H       2.9864228459    -3.5680257936     0.4472619848
   89      H       2.3193126559    -2.7889956899    -0.9820376967
   90      H       1.4621693042    -2.6951702379     0.5455327964
 ----------------------------------------------------------------

   15   -1973.7096435853      5.09E-09 Convergence criterion met
 Total energy in the final basis set = -1973.70964359

         TDDFT/TDA Excitation Energies
 ---------------------------------------------------

 Excited state   1: excitation energy (eV) =    2.0134
 Total energy for state  1:                 -1973.63565391 au
    Multiplicity: Triplet
    Trans. Mom.:  0.0000 X   0.0000 Y   0.0000 Z
    Strength   :     0.0000000000
    D(167) --> V(  2) amplitude = -0.2568
    D(174) --> V(  1) amplitude =  0.9234

 Excited state   2: excitation energy (eV) =    2.3756
 Total energy for state  2:                 -1973.62234075 au
    Multiplicity: Triplet
    Trans. Mom.:  0.0000 X   0.0000 Y   0.0000 Z
    Strength   :     0.0000000000
    D(171) --> V(  2) amplitude = -0.3532
    D(172) --> V(  2) amplitude =  0.3201
    D(173) --> V(  1) amplitude =  0.7980

 Excited state   3: excitation energy (eV) =    2.4384
 Total energy for state  3:                 -1973.62003367 au
    Multiplicity: Triplet
    Trans. Mom.:  0.0000 X   0.0000 Y   0.0000 Z
    Strength   :     0.0000000000
    D(171) --> V(  1) amplitude = -0.5260
    D(172) --> V(  1) amplitude =  0.4922
    D(173) --> V(  2) amplitude =  0.5288

 Excited state   4: excitation energy (eV) =    2.5224
 Total energy for state  4:                 -1973.61694856 au
    Multiplicity: Triplet
    Trans. Mom.:  0.0000 X   0.0000 Y   0.0000 Z
    Strength   :     0.0000000000
    D(167) --> V(  1) amplitude =  0.7154
    D(174) --> V(  2) amplitude = -0.5546

 Excited state   5: excitation energy (eV) =    2.6885
 Total energy for state  5:                 -1973.61084465 au
    Multiplicity: Singlet
    Trans. Mom.: -0.1162 X   0.0399 Y   0.1249 Z
    Strength   :     0.0020217155
    D(174) --> V(  1) amplitude =  0.9672

 Excited state   6: excitation energy (eV) =    3.0224
 Total energy for state  6:                 -1973.59857218 au
    Multiplicity: Triplet
    Trans. Mom.:  0.0000 X   0.0000 Y   0.0000 Z
    Strength   :     0.0000000000
    D(171) --> V(  1) amplitude =  0.6279
    D(172) --> V(  1) amplitude =  0.7040

 Excited state   7: excitation energy (eV) =    3.0966
 Total energy for state  7:                 -1973.59584432 au
    Multiplicity: Singlet
    Trans. Mom.: -0.5293 X   0.0632 Y   0.8393 Z
    Strength   :     0.0750050747
    D(171) --> V(  1) amplitude =  0.6002
    D(172) --> V(  1) amplitude =  0.7168
    D(173) --> V(  1) amplitude = -0.2320

 Excited state   8: excitation energy (eV) =    3.1046
 Total energy for state  8:                 -1973.59555120 au
    Multiplicity: Singlet
    Trans. Mom.:  1.9814 X  -0.2013 Y  -3.4976 Z
    Strength   :     1.2321872421
    D(173) --> V(  1) amplitude =  0.9236

 Excited state   9: excitation energy (eV) =    3.1789
 Total energy for state  9:                 -1973.59282064 au
    Multiplicity: Triplet
    Trans. Mom.:  0.0000 X   0.0000 Y   0.0000 Z
    Strength   :     0.0000000000
    D(170) --> V(  1) amplitude =  0.9577

 Excited state  10: excitation energy (eV) =    3.2124
 Total energy for state 10:                 -1973.59159042 au
    Multiplicity: Singlet
    Trans. Mom.:  0.0816 X  -0.0179 Y  -0.2882 Z
    Strength   :     0.0070876343
    D(170) --> V(  1) amplitude =  0.9660

 Excited state  11: excitation energy (eV) =    3.4261
 Total energy for state 11:                 -1973.58373830 au
    Multiplicity: Singlet
    Trans. Mom.:  0.2754 X  -0.3192 Y   0.1828 Z
    Strength   :     0.0177239108
    D(171) --> V(  1) amplitude =  0.6944
    D(172) --> V(  1) amplitude = -0.5912

 Excited state  12: excitation energy (eV) =    3.4713
 Total energy for state 12:                 -1973.58207464 au
    Multiplicity: Singlet
    Trans. Mom.: -0.9283 X  -0.0443 Y  -0.5072 Z
    Strength   :     0.0953278183
    D(167) --> V(  1) amplitude =  0.7095
    D(174) --> V(  2) amplitude = -0.5834

 ---------------------------------------------------

                    Orbital Energies (a.u.)
 --------------------------------------------------------------

 Alpha MOs
 -- Occupied --
-10.466 -10.466 -10.465 -10.465 -10.465 -10.465 -10.465 -10.465
-10.464 -10.464 -10.463 -10.463 -10.462 -10.462 -10.462 -10.462
-10.460 -10.460 -10.459 -10.459 -10.458 -10.458 -10.454 -10.454
-10.452 -10.452 -10.449 -10.448 -10.448 -10.448 -10.448 -10.448
-10.447 -10.447 -10.437 -10.436 -10.435 -10.434 -10.430 -10.430
-10.430 -10.430 -10.427 -10.427 -10.424 -10.424 -10.424 -10.424
-10.419 -10.418  -6.943  -6.943  -1.015  -1.015  -0.961  -0.957
 -0.956  -0.954  -0.934  -0.934  -0.906  -0.897  -0.872  -0.868
 -0.867  -0.867  -0.858  -0.856  -0.848  -0.847  -0.818  -0.814
 -0.812  -0.798  -0.779  -0.779  -0.758  -0.756  -0.756  -0.756
 -0.733  -0.730  -0.729  -0.718  -0.689  -0.683  -0.678  -0.668
 -0.650  -0.643  -0.638  -0.638  -0.638  -0.636  -0.597  -0.592
 -0.590  -0.588  -0.583  -0.576  -0.575  -0.551  -0.546  -0.542
 -0.540  -0.539  -0.527  -0.526  -0.521  -0.509  -0.502  -0.500
 -0.494  -0.494  -0.492  -0.486  -0.485  -0.484  -0.480  -0.479
 -0.478  -0.478  -0.475  -0.467  -0.465  -0.464  -0.463  -0.463
 -0.462  -0.460  -0.455  -0.454  -0.449  -0.448  -0.445  -0.443
 -0.442  -0.439  -0.433  -0.429  -0.426  -0.422  -0.416  -0.411
 -0.410  -0.400  -0.398  -0.397  -0.396  -0.394  -0.390  -0.387
 -0.382  -0.379  -0.379  -0.378  -0.376  -0.366  -0.354  -0.350
 -0.348  -0.334  -0.324  -0.318  -0.297  -0.296  -0.278  -0.272
 -0.272  -0.265  -0.263  -0.263  -0.256  -0.250

          Ground-State Mulliken Net Atomic Charges

     Atom                 Charge (a.u.)
  ----------------------------------------
      1 C                    -0.154394
      2 C                    -0.381141
      3 H                     0.244414
      4 C                     0.068895
      5 C                     0.188563
      6 C                    -0.377735
      7 H                     0.240545
      8 C                    -0.222371
      9 H                     0.244850
     10 C                    -0.339748
     11 H                     0.240420
     12 C                    -0.071763
     13 C                     0.233863
     14 C                     0.190170
     15 C                    -0.386576
     16 H                     0.240415
     17 C                    -0.220012
     18 H                     0.244498
     19 C                    -0.343297
     20 H                     0.240775
     21 C                     0.095536
     22 C                    -0.393065
     23 H                     0.243293
     24 C                    -0.156306
     25 B                     0.685238
     26 C                    -0.153822
     27 C                    -0.383549
     28 H                     0.243767
     29 C                     0.069744
     30 C                     0.189471
     31 C                    -0.376067
     32 H                     0.241209
     33 C                    -0.221962
     34 H                     0.245076
     35 C                    -0.340396
     36 H                     0.240575
     37 C                    -0.074110
     38 C                     0.233848
     39 C                     0.190226
     40 C                    -0.382934
     41 H                     0.240882
     42 C                    -0.220752
     43 H                     0.244795
     44 C                    -0.342955
     45 H                     0.240898
     46 C                     0.090728
     47 C                    -0.390573
     48 H                     0.243316
     49 C                    -0.156102
     50 B                     0.687167
     51 C                    -0.220799
     52 C                     0.057333
     53 C                    -0.360643
     54 H                     0.213247
     55 C                     0.118981
     56 C                    -0.351699
     57 H                     0.212121
     58 C                     0.052932
     59 C                    -0.717308
     60 H                     0.233117
     61 H                     0.234224
     62 H                     0.235571
     63 C                    -0.768612
     64 H                     0.243585
     65 H                     0.245811
     66 H                     0.246340
     67 C                    -0.764615
     68 H                     0.242647
     69 H                     0.245369
     70 H                     0.245819
     71 C                    -0.227226
     72 C                     0.053389
     73 C                    -0.359919
     74 H                     0.213238
     75 C                     0.119090
     76 C                    -0.350613
     77 H                     0.212474
     78 C                     0.058900
     79 C                    -0.717181
     80 H                     0.232960
     81 H                     0.234106
     82 H                     0.236224
     83 C                    -0.765065
     84 H                     0.242893
     85 H                     0.245988
     86 H                     0.244380
     87 C                    -0.766028
     88 H                     0.243194
     89 H                     0.245922
     90 H                     0.246307
  ----------------------------------------
  Sum of atomic charges =    -0.000000

                    Cartesian Multipole Moments
 -----------------------------------------------------------------
    Charge (ESU x 10^10)
                -0.0000
    Dipole Moment (Debye)
         X       0.1036      Y      -0.9469      Z       0.0624
       Tot       0.9546
    Quadrupole Moments (Debye-Ang)
        XX    -254.6622     XY      -1.5859     YY    -300.5017
        XZ      -7.0540     YZ       4.3798     ZZ    -244.5823

 Total job time:  8058.55s(wall), 27671.43s(cpu)
        *  Thank you very much for using Q-Chem.  Have a nice day.  *
