 Q-Chem 5.1, Q-Chem, Inc., Pleasanton, CA (2018)
 Q-Chem 5.1.1 for Intel X86 EM64T Linux

User input:
--------------------------------------------------------------
$solvent
dielectric      8.93
dielectric_infi 2.03
$end

$rem
threads 8
jobtype	sp
method PBEh-3c
basis def2-mSVP
mem_static	1024
mem_total	14000
sym_ignore	true
cis_n_roots             2
cis_singlets            false
cis_triplets		true
rpa                     false
calc_soc 		true
cis_moments             true
cis_relaxed_density	true
solvent_method		pcm
$end

$pcm
StateSpecific   1
ChargeSeparation Excited
$end

$molecule
read t1opt.mol
$end

--------------------------------------------------------------

   14   -1973.7216929765      7.45e-09  Convergence criterion met
 Total energy in the final basis set =    -1973.7216929765
 Total job time:  4682.98s(wall), 17984.54s(cpu)
        *  Thank you very much for using Q-Chem.  Have a nice day.  *
 Q-Chem 5.1, Q-Chem, Inc., Pleasanton, CA (2018)
 Q-Chem 5.1.1 for Intel X86 EM64T Linux

User input:
--------------------------------------------------------------
$rem
threads 8
jobtype sp
method PBEh-3c
basis def2-mSVP
mem_static      1024
mem_total       14000
sym_ignore      true
cis_n_roots             6
cis_singlets            true
cis_triplets            true
rpa                     false
calc_soc                true
cis_moments             true
cis_relaxed_density     true
solvent_method          pcm
$end

$molecule
read
$end

$pcm
statespecific           Marcus
$end

$solvent
dielectric      8.93
dielectric_infi 2.03
$end

--------------------------------------------------------------

             Standard Nuclear Orientation (Angstroms)
    I     Atom           X                Y                Z
 ----------------------------------------------------------------
    1      C       0.0000000000     0.0000000000     0.0000000000
    2      C       0.0000000000     0.0000000000     1.4042360000
    3      H       0.9460150642     0.0000000000     1.9339195413
    4      C      -1.1853966296     0.0007176006     2.0953715572
    5      C      -1.4895099247    -0.0013577683     3.5141877844
    6      C      -0.7519850166    -0.0047429234     4.6739796278
    7      H       0.3302313540    -0.0057790951     4.6615712180
    8      C      -1.4389191232    -0.0070151854     5.9062555902
    9      H      -0.8590952884    -0.0102522298     6.8198982496
   10      C      -2.8137664897    -0.0047978712     5.9923471931
   11      H      -3.2922769684    -0.0064253886     6.9638472050
   12      C      -2.8978385177     0.0015424888     3.6148573844
   13      C      -3.6004609615     0.0000662509     4.8161569217
   14      C      -3.5154232744     0.0068329190     2.3440864401
   15      C      -4.8902813532     0.0104831233     2.2744564915
   16      H      -5.4130672535     0.0143394343     1.3264137338
   17      C      -5.6224157402     0.0088919622     3.4784785664
   18      H      -6.7035332452     0.0115147198     3.4273077236
   19      C      -5.0134427497     0.0041670992     4.7147084709
   20      H      -5.6201859437     0.0032579618     5.6118334229
   21      C      -2.4463595831     0.0065975002     1.3725577898
   22      C      -2.4642233066     0.0099704981    -0.0030680921
   23      H      -3.4074709996     0.0168060775    -0.5390590444
   24      C      -1.2630878083     0.0020202836    -0.7226229178
   25      B       1.3343717725    -0.0002667077    -0.7554854475
   26      C       1.3209962962    -0.0264237936    -2.2887160099
   27      C       2.5342591913    -0.0409987745    -2.9972373026
   28      H       3.4677102197    -0.0387726632    -2.4452052358
   29      C       2.5342844897    -0.0539699740    -4.3703110354
   30      C       3.6033536379    -0.0609738626    -5.3515481032
   31      C       4.9766528137    -0.0590008820    -5.3019484308
   32      H       5.5132202769    -0.0535289908    -4.3619973820
   33      C       5.6912361437    -0.0630115958    -6.5185318524
   34      H       6.7726793319    -0.0609015518    -6.4809518044
   35      C       5.0694424917    -0.0687537661    -7.7478142520
   36      H       5.6652935720    -0.0711423807    -8.6520338238
   37      C       2.9774703428    -0.0672689090    -6.6172014753
   38      C       3.6564772614    -0.0704873076    -7.8308012523
   39      C       1.5685405984    -0.0659488910    -6.5044588244
   40      C       0.8093580357    -0.0701574115    -7.6524943068
   41      H      -0.2728246339    -0.0700570895    -7.6205176193
   42      C       1.4757462974    -0.0736691298    -8.8935096260
   43      H       0.8836959119    -0.0761352687    -9.7994958734
   44      C       2.8504475449    -0.0736445574    -8.9958584007
   45      H       3.3146667046    -0.0758003469    -9.9742214846
   46      C       1.2718253286    -0.0557475268    -5.0919099995
   47      C       0.0743352445    -0.0438410166    -4.4125958294
   48      H      -0.8651570621    -0.0452608147    -4.9550775599
   49      C       0.0574222111    -0.0287664475    -3.0134482481
   50      B      -1.2838212186    -0.0089604557    -2.2597758794
   51      C       2.6898680355     0.0382775337     0.0394126166
   52      C       3.2680713765     1.2633859132     0.3842690335
   53      C       4.4639539645     1.2891086026     1.0941070226
   54      H       4.9031429271     2.2462795519     1.3560400127
   55      C       5.1062993564     0.1194872074     1.4750823664
   56      C       4.5196904657    -1.0939149230     1.1326162423
   57      H       5.0044482362    -2.0195982259     1.4265885566
   58      C       3.3268265579    -1.1478362252     0.4239807137
   59      C       6.4075507596     0.1564202369     2.2227314649
   60      H       6.6373905514     1.1604794103     2.5781426754
   61      H       6.3914577018    -0.5055921947     3.0894561925
   62      H       7.2377946337    -0.1631652072     1.5898461500
   63      C       2.7085902603    -2.4716097110     0.0694000530
   64      H       3.3051882473    -3.3080749873     0.4327836601
   65      H       2.6027287065    -2.5862198436    -1.0116463650
   66      H       1.7074018129    -2.5704270301     0.4950875957
   67      C       2.5916765740     2.5483850953    -0.0079856725
   68      H       3.1610376045     3.4202052545     0.3139894422
   69      H       2.4640944353     2.6205046740    -1.0903850556
   70      H       1.5948787222     2.6264688387     0.4321084057
   71      C      -2.6557036312     0.0002323477    -3.0376242459
   72      C      -3.2993750384    -1.1970040166    -3.3681925216
   73      C      -4.5209171660    -1.1710925666    -4.0342735152
   74      H      -5.0078422491    -2.1086444626    -4.2820132353
   75      C      -5.1305658353     0.0241537610    -4.3870588800
   76      C      -4.4859986545     1.2095355981    -4.0531672962
   77      H      -4.9468393172     2.1564599413    -4.3170232776
   78      C      -3.2669832378     1.2124631869    -3.3888482805
   79      C      -6.4434363943     0.0487503711    -5.1152519513
   80      H      -6.8604247025    -0.9516937204    -5.2258687842
   81      H      -7.1813054606     0.6569923066    -4.5896637498
   82      H      -6.3355513861     0.4707298163    -6.1162494931
   83      C      -2.6767919061    -2.5126608744    -2.9939405608
   84      H      -3.2715514168    -3.3555799364    -3.3455457794
   85      H      -1.6753536941    -2.6169282300    -3.4165001223
   86      H      -2.5749559831    -2.6112235766    -1.9108876792
   87      C      -2.6066526833     2.5162401452    -3.0362369533
   88      H      -3.1812567006     3.3698573508    -3.3957177873
   89      H      -1.6057742606     2.5875630550    -3.4669712881
   90      H      -2.4947648379     2.6266827037    -1.9554242988
 ----------------------------------------------------------------

   15   -1973.7215514198      5.07e-09  Convergence criterion met
 Total energy in the final basis set =    -1973.7215514198

         TDDFT/TDA Excitation Energies
 ---------------------------------------------------

 Excited state   1: excitation energy (eV) =    2.0206
 Total energy for state  1:                 -1973.64729521 au
    Multiplicity: Triplet
    Trans. Mom.:  0.0000 X   0.0000 Y   0.0000 Z
    Strength   :     0.0000000000
    D(167) --> V(  2) amplitude = -0.2537
    D(174) --> V(  1) amplitude =  0.9192

 Excited state   2: excitation energy (eV) =    2.3710
 Total energy for state  2:                 -1973.63441884 au
    Multiplicity: Triplet
    Trans. Mom.:  0.0000 X   0.0000 Y   0.0000 Z
    Strength   :     0.0000000000
    D(172) --> V(  2) amplitude = -0.4752
    D(173) --> V(  1) amplitude =  0.8086

 Excited state   3: excitation energy (eV) =    2.4323
 Total energy for state  3:                 -1973.63216594 au
    Multiplicity: Triplet
    Trans. Mom.:  0.0000 X   0.0000 Y   0.0000 Z
    Strength   :     0.0000000000
    D(172) --> V(  1) amplitude =  0.7369
    D(172) --> V(  4) amplitude =  0.2201
    D(173) --> V(  2) amplitude = -0.5139
    D(174) --> V(  2) amplitude = -0.2135

 Excited state   4: excitation energy (eV) =    2.5346
 Total energy for state  4:                 -1973.62840542 au
    Multiplicity: Triplet
    Trans. Mom.:  0.0000 X   0.0000 Y   0.0000 Z
    Strength   :     0.0000000000
    D(167) --> V(  1) amplitude = -0.7200
    D(173) --> V(  2) amplitude = -0.2128
    D(174) --> V(  2) amplitude =  0.5346

 Excited state   5: excitation energy (eV) =    2.6912
 Total energy for state  5:                 -1973.62265219 au
    Multiplicity: Singlet
    Trans. Mom.: -0.1274 X   0.0036 Y   0.2322 Z
    Strength   :     0.0046260833
    D(174) --> V(  1) amplitude =  0.9620

 Excited state   6: excitation energy (eV) =    3.0312
 Total energy for state  6:                 -1973.61015710 au
    Multiplicity: Triplet
    Trans. Mom.:  0.0000 X   0.0000 Y   0.0000 Z
    Strength   :     0.0000000000
    D(171) --> V(  1) amplitude =  0.9442

 Excited state   7: excitation energy (eV) =    3.0848
 Total energy for state  7:                 -1973.60818610 au
    Multiplicity: Singlet
    Trans. Mom.: -2.0419 X   0.0205 Y   3.5768 Z
    Strength   :     1.2820406906
    D(173) --> V(  1) amplitude =  0.9318

 Excited state   8: excitation energy (eV) =    3.1073
 Total energy for state  8:                 -1973.60736027 au
    Multiplicity: Singlet
    Trans. Mom.:  0.4589 X  -0.0003 Y  -0.7728 Z
    Strength   :     0.0614882052
    D(171) --> V(  1) amplitude =  0.9458

 Excited state   9: excitation energy (eV) =    3.1884
 Total energy for state  9:                 -1973.60438126 au
    Multiplicity: Triplet
    Trans. Mom.:  0.0000 X   0.0000 Y   0.0000 Z
    Strength   :     0.0000000000
    D(170) --> V(  1) amplitude =  0.9628

 Excited state  10: excitation energy (eV) =    3.2209
 Total energy for state 10:                 -1973.60318568 au
    Multiplicity: Singlet
    Trans. Mom.:  0.0580 X  -0.0033 Y  -0.0826 Z
    Strength   :     0.0008052149
    D(170) --> V(  1) amplitude =  0.9703

 Excited state  11: excitation energy (eV) =    3.4075
 Total energy for state 11:                 -1973.59632679 au
    Multiplicity: Singlet
    Trans. Mom.:  0.1713 X   0.0178 Y   0.1084 Z
    Strength   :     0.0034572635
    D(172) --> V(  1) amplitude =  0.9313

 Excited state  12: excitation energy (eV) =    3.4843
 Total energy for state 12:                 -1973.59350637 au
    Multiplicity: Singlet
    Trans. Mom.:  0.9681 X   0.0004 Y   0.5339 Z
    Strength   :     0.1043417784
    D(167) --> V(  1) amplitude =  0.7406
    D(174) --> V(  2) amplitude = -0.5616

 ---------------------------------------------------

                    Orbital Energies (a.u.)
 --------------------------------------------------------------

 Alpha MOs
 -- Occupied --
-10.469 -10.468 -10.468 -10.468 -10.466 -10.466 -10.466 -10.466
-10.466 -10.466 -10.464 -10.464 -10.463 -10.463 -10.463 -10.463
-10.462 -10.462 -10.459 -10.458 -10.458 -10.458 -10.457 -10.456
-10.456 -10.456 -10.452 -10.452 -10.452 -10.452 -10.450 -10.450
-10.450 -10.450 -10.440 -10.439 -10.439 -10.439 -10.434 -10.433
-10.433 -10.433 -10.427 -10.427 -10.427 -10.427 -10.426 -10.426
-10.423 -10.421  -6.948  -6.945  -1.017  -1.017  -0.963  -0.960
 -0.959  -0.958  -0.935  -0.935  -0.909  -0.900  -0.875  -0.871
 -0.871  -0.870  -0.860  -0.859  -0.849  -0.848  -0.820  -0.816
 -0.814  -0.801  -0.781  -0.781  -0.761  -0.759  -0.759  -0.758
 -0.735  -0.731  -0.730  -0.720  -0.690  -0.685  -0.679  -0.670
 -0.652  -0.645  -0.641  -0.641  -0.640  -0.639  -0.598  -0.592
 -0.592  -0.589  -0.584  -0.577  -0.576  -0.553  -0.548  -0.543
 -0.543  -0.542  -0.528  -0.527  -0.523  -0.511  -0.503  -0.502
 -0.497  -0.495  -0.494  -0.488  -0.488  -0.487  -0.482  -0.481
 -0.481  -0.480  -0.476  -0.468  -0.466  -0.466  -0.465  -0.465
 -0.464  -0.461  -0.457  -0.456  -0.451  -0.450  -0.446  -0.444
 -0.442  -0.441  -0.434  -0.432  -0.428  -0.425  -0.418  -0.413
 -0.412  -0.402  -0.399  -0.398  -0.398  -0.394  -0.392  -0.389
 -0.386  -0.382  -0.382  -0.380  -0.379  -0.369  -0.357  -0.352
 -0.352  -0.338  -0.327  -0.321  -0.299  -0.298  -0.281  -0.277
 -0.277  -0.269  -0.267  -0.265  -0.258  -0.253

          Ground-State Mulliken Net Atomic Charges

     Atom                 Charge (a.u.)
  ----------------------------------------
      1 C                    -0.156813
      2 C                    -0.388838
      3 H                     0.250191
      4 C                     0.076909
      5 C                     0.186379
      6 C                    -0.389933
      7 H                     0.255507
      8 C                    -0.233868
      9 H                     0.260251
     10 C                    -0.348613
     11 H                     0.258118
     12 C                    -0.076873
     13 C                     0.219367
     14 C                     0.179705
     15 C                    -0.383640
     16 H                     0.255533
     17 C                    -0.234916
     18 H                     0.260590
     19 C                    -0.346495
     20 H                     0.258098
     21 C                     0.070263
     22 C                    -0.387627
     23 H                     0.249138
     24 C                    -0.155491
     25 B                     0.678776
     26 C                    -0.157256
     27 C                    -0.390808
     28 H                     0.249174
     29 C                     0.078108
     30 C                     0.186349
     31 C                    -0.390011
     32 H                     0.255694
     33 C                    -0.233985
     34 H                     0.260219
     35 C                    -0.349121
     36 H                     0.258266
     37 C                    -0.075772
     38 C                     0.220805
     39 C                     0.177040
     40 C                    -0.382426
     41 H                     0.255642
     42 C                    -0.234842
     43 H                     0.260685
     44 C                    -0.346872
     45 H                     0.257947
     46 C                     0.070001
     47 C                    -0.387663
     48 H                     0.248443
     49 C                    -0.155042
     50 B                     0.682136
     51 C                    -0.223910
     52 C                     0.050335
     53 C                    -0.373356
     54 H                     0.227280
     55 C                     0.107951
     56 C                    -0.363530
     57 H                     0.225886
     58 C                     0.052976
     59 C                    -0.722401
     60 H                     0.238752
     61 H                     0.238353
     62 H                     0.240929
     63 C                    -0.772606
     64 H                     0.251355
     65 H                     0.246857
     66 H                     0.246733
     67 C                    -0.774189
     68 H                     0.251854
     69 H                     0.247025
     70 H                     0.247102
     71 C                    -0.221675
     72 C                     0.048562
     73 C                    -0.371435
     74 H                     0.227660
     75 C                     0.108517
     76 C                    -0.362061
     77 H                     0.226246
     78 C                     0.047518
     79 C                    -0.723303
     80 H                     0.239246
     81 H                     0.239238
     82 H                     0.240566
     83 C                    -0.772017
     84 H                     0.251583
     85 H                     0.246463
     86 H                     0.246338
     87 C                    -0.772031
     88 H                     0.251696
     89 H                     0.246643
     90 H                     0.246425
  ----------------------------------------
  Sum of atomic charges =    -0.000000

                    Cartesian Multipole Moments
 -----------------------------------------------------------------
    Charge (ESU x 10^10)
                -0.0000
    Dipole Moment (Debye)
         X      -0.0811      Y       0.0088      Z      -0.0582
       Tot       0.1002
    Quadrupole Moments (Debye-Ang)
        XX    -245.6908     XY      -0.7133     YY    -301.2775
        XZ     -10.5612     YZ      -0.3107     ZZ    -233.6664

 Total job time:  12415.33s(wall), 39606.73s(cpu)
        *  Thank you very much for using Q-Chem.  Have a nice day.  *
