 Q-Chem 5.1, Q-Chem, Inc., Pleasanton, CA (2018)
 Q-Chem 5.1.1 for Intel X86 EM64T Linux

User input:
--------------------------------------------------------------
$solvent
dielectric      2.03
dielectric_infi 2.02
$end

$rem
threads 8
jobtype	sp
method PBEh-3c
basis def2-mSVP
mem_static	1024
mem_total	14000
sym_ignore	true
cis_n_roots             2
cis_singlets            false
cis_triplets		true
rpa                     false
calc_soc 		true
cis_moments             true
cis_relaxed_density	true
solvent_method		pcm
$end

$pcm
StateSpecific   1
ChargeSeparation Excited
$end

$molecule
read t1opt.mol
$end

--------------------------------------------------------------

   15   -1973.7105772065      5.14e-09  Convergence criterion met
 Total energy in the final basis set =    -1973.7105772065
 Total job time:  4445.45s(wall), 17831.20s(cpu)
        *  Thank you very much for using Q-Chem.  Have a nice day.  *
 Q-Chem 5.1, Q-Chem, Inc., Pleasanton, CA (2018)
 Q-Chem 5.1.1 for Intel X86 EM64T Linux

User input:
--------------------------------------------------------------
$rem
threads 8
jobtype sp
method PBEh-3c
basis def2-mSVP
mem_static      1024
mem_total       14000
sym_ignore      true
cis_n_roots             6
cis_singlets            true
cis_triplets            true
rpa                     false
calc_soc                true
cis_moments             true
cis_relaxed_density     true
solvent_method          pcm
$end

$molecule
read
$end

$pcm
statespecific           Marcus
$end

$solvent
dielectric      2.03
dielectric_infi 2.02
$end

--------------------------------------------------------------

             Standard Nuclear Orientation (Angstroms)
    I     Atom           X                Y                Z
 ----------------------------------------------------------------
    1      C       0.0000000000     0.0000000000     0.0000000000
    2      C       0.0000000000     0.0000000000     1.4042360000
    3      H       0.9460150642     0.0000000000     1.9339195413
    4      C      -1.1853966296     0.0007176006     2.0953715572
    5      C      -1.4895099247    -0.0013577683     3.5141877844
    6      C      -0.7519850166    -0.0047429234     4.6739796278
    7      H       0.3302313540    -0.0057790951     4.6615712180
    8      C      -1.4389191232    -0.0070151854     5.9062555902
    9      H      -0.8590952884    -0.0102522298     6.8198982496
   10      C      -2.8137664897    -0.0047978712     5.9923471931
   11      H      -3.2922769684    -0.0064253886     6.9638472050
   12      C      -2.8978385177     0.0015424888     3.6148573844
   13      C      -3.6004609615     0.0000662509     4.8161569217
   14      C      -3.5154232744     0.0068329190     2.3440864401
   15      C      -4.8902813532     0.0104831233     2.2744564915
   16      H      -5.4130672535     0.0143394343     1.3264137338
   17      C      -5.6224157402     0.0088919622     3.4784785664
   18      H      -6.7035332452     0.0115147198     3.4273077236
   19      C      -5.0134427497     0.0041670992     4.7147084709
   20      H      -5.6201859437     0.0032579618     5.6118334229
   21      C      -2.4463595831     0.0065975002     1.3725577898
   22      C      -2.4642233066     0.0099704981    -0.0030680921
   23      H      -3.4074709996     0.0168060775    -0.5390590444
   24      C      -1.2630878083     0.0020202836    -0.7226229178
   25      B       1.3343717725    -0.0002667077    -0.7554854475
   26      C       1.3209962962    -0.0264237936    -2.2887160099
   27      C       2.5342591913    -0.0409987745    -2.9972373026
   28      H       3.4677102197    -0.0387726632    -2.4452052358
   29      C       2.5342844897    -0.0539699740    -4.3703110354
   30      C       3.6033536379    -0.0609738626    -5.3515481032
   31      C       4.9766528137    -0.0590008820    -5.3019484308
   32      H       5.5132202769    -0.0535289908    -4.3619973820
   33      C       5.6912361437    -0.0630115958    -6.5185318524
   34      H       6.7726793319    -0.0609015518    -6.4809518044
   35      C       5.0694424917    -0.0687537661    -7.7478142520
   36      H       5.6652935720    -0.0711423807    -8.6520338238
   37      C       2.9774703428    -0.0672689090    -6.6172014753
   38      C       3.6564772614    -0.0704873076    -7.8308012523
   39      C       1.5685405984    -0.0659488910    -6.5044588244
   40      C       0.8093580357    -0.0701574115    -7.6524943068
   41      H      -0.2728246339    -0.0700570895    -7.6205176193
   42      C       1.4757462974    -0.0736691298    -8.8935096260
   43      H       0.8836959119    -0.0761352687    -9.7994958734
   44      C       2.8504475449    -0.0736445574    -8.9958584007
   45      H       3.3146667046    -0.0758003469    -9.9742214846
   46      C       1.2718253286    -0.0557475268    -5.0919099995
   47      C       0.0743352445    -0.0438410166    -4.4125958294
   48      H      -0.8651570621    -0.0452608147    -4.9550775599
   49      C       0.0574222111    -0.0287664475    -3.0134482481
   50      B      -1.2838212186    -0.0089604557    -2.2597758794
   51      C       2.6898680355     0.0382775337     0.0394126166
   52      C       3.2680713765     1.2633859132     0.3842690335
   53      C       4.4639539645     1.2891086026     1.0941070226
   54      H       4.9031429271     2.2462795519     1.3560400127
   55      C       5.1062993564     0.1194872074     1.4750823664
   56      C       4.5196904657    -1.0939149230     1.1326162423
   57      H       5.0044482362    -2.0195982259     1.4265885566
   58      C       3.3268265579    -1.1478362252     0.4239807137
   59      C       6.4075507596     0.1564202369     2.2227314649
   60      H       6.6373905514     1.1604794103     2.5781426754
   61      H       6.3914577018    -0.5055921947     3.0894561925
   62      H       7.2377946337    -0.1631652072     1.5898461500
   63      C       2.7085902603    -2.4716097110     0.0694000530
   64      H       3.3051882473    -3.3080749873     0.4327836601
   65      H       2.6027287065    -2.5862198436    -1.0116463650
   66      H       1.7074018129    -2.5704270301     0.4950875957
   67      C       2.5916765740     2.5483850953    -0.0079856725
   68      H       3.1610376045     3.4202052545     0.3139894422
   69      H       2.4640944353     2.6205046740    -1.0903850556
   70      H       1.5948787222     2.6264688387     0.4321084057
   71      C      -2.6557036312     0.0002323477    -3.0376242459
   72      C      -3.2993750384    -1.1970040166    -3.3681925216
   73      C      -4.5209171660    -1.1710925666    -4.0342735152
   74      H      -5.0078422491    -2.1086444626    -4.2820132353
   75      C      -5.1305658353     0.0241537610    -4.3870588800
   76      C      -4.4859986545     1.2095355981    -4.0531672962
   77      H      -4.9468393172     2.1564599413    -4.3170232776
   78      C      -3.2669832378     1.2124631869    -3.3888482805
   79      C      -6.4434363943     0.0487503711    -5.1152519513
   80      H      -6.8604247025    -0.9516937204    -5.2258687842
   81      H      -7.1813054606     0.6569923066    -4.5896637498
   82      H      -6.3355513861     0.4707298163    -6.1162494931
   83      C      -2.6767919061    -2.5126608744    -2.9939405608
   84      H      -3.2715514168    -3.3555799364    -3.3455457794
   85      H      -1.6753536941    -2.6169282300    -3.4165001223
   86      H      -2.5749559831    -2.6112235766    -1.9108876792
   87      C      -2.6066526833     2.5162401452    -3.0362369533
   88      H      -3.1812567006     3.3698573508    -3.3957177873
   89      H      -1.6057742606     2.5875630550    -3.4669712881
   90      H      -2.4947648379     2.6266827037    -1.9554242988
 ----------------------------------------------------------------

   15   -1973.7105763757      5.15e-09  Convergence criterion met
 Total energy in the final basis set =    -1973.7105763757

         TDDFT/TDA Excitation Energies
 ---------------------------------------------------

 Excited state   1: excitation energy (eV) =    2.0069
 Total energy for state  1:                 -1973.63682353 au
    Multiplicity: Triplet
    Trans. Mom.:  0.0000 X   0.0000 Y   0.0000 Z
    Strength   :     0.0000000000
    D(167) --> V(  2) amplitude =  0.2573
    D(174) --> V(  1) amplitude =  0.9218

 Excited state   2: excitation energy (eV) =    2.3749
 Total energy for state  2:                 -1973.62329967 au
    Multiplicity: Triplet
    Trans. Mom.:  0.0000 X   0.0000 Y   0.0000 Z
    Strength   :     0.0000000000
    D(171) --> V(  2) amplitude =  0.4524
    D(173) --> V(  1) amplitude =  0.8058

 Excited state   3: excitation energy (eV) =    2.4330
 Total energy for state  3:                 -1973.62116625 au
    Multiplicity: Triplet
    Trans. Mom.:  0.0000 X   0.0000 Y   0.0000 Z
    Strength   :     0.0000000000
    D(171) --> V(  1) amplitude =  0.6807
    D(172) --> V(  1) amplitude =  0.2519
    D(173) --> V(  2) amplitude =  0.5175
    D(174) --> V(  2) amplitude =  0.2195

 Excited state   4: excitation energy (eV) =    2.5166
 Total energy for state  4:                 -1973.61809478 au
    Multiplicity: Triplet
    Trans. Mom.:  0.0000 X   0.0000 Y   0.0000 Z
    Strength   :     0.0000000000
    D(167) --> V(  1) amplitude = -0.7117
    D(173) --> V(  2) amplitude =  0.2167
    D(174) --> V(  2) amplitude = -0.5394

 Excited state   5: excitation energy (eV) =    2.6821
 Total energy for state  5:                 -1973.61201225 au
    Multiplicity: Singlet
    Trans. Mom.:  0.1183 X  -0.0035 Y  -0.2159 Z
    Strength   :     0.0039826155
    D(174) --> V(  1) amplitude =  0.9655

 Excited state   6: excitation energy (eV) =    3.0190
 Total energy for state  6:                 -1973.59963058 au
    Multiplicity: Triplet
    Trans. Mom.:  0.0000 X   0.0000 Y   0.0000 Z
    Strength   :     0.0000000000
    D(171) --> V(  1) amplitude = -0.3255
    D(172) --> V(  1) amplitude =  0.8862

 Excited state   7: excitation energy (eV) =    3.0916
 Total energy for state  7:                 -1973.59696313 au
    Multiplicity: Singlet
    Trans. Mom.: -0.7621 X   0.0113 Y   1.3604 Z
    Strength   :     0.1841814665
    D(171) --> V(  1) amplitude = -0.2989
    D(172) --> V(  1) amplitude =  0.8333
    D(173) --> V(  1) amplitude = -0.3790

 Excited state   8: excitation energy (eV) =    3.1053
 Total energy for state  8:                 -1973.59645998 au
    Multiplicity: Singlet
    Trans. Mom.:  1.9328 X  -0.0171 Y  -3.3710 Z
    Strength   :     1.1487324627
    D(172) --> V(  1) amplitude =  0.3562
    D(173) --> V(  1) amplitude =  0.8726

 Excited state   9: excitation energy (eV) =    3.1748
 Total energy for state  9:                 -1973.59390514 au
    Multiplicity: Triplet
    Trans. Mom.:  0.0000 X   0.0000 Y   0.0000 Z
    Strength   :     0.0000000000
    D(170) --> V(  1) amplitude =  0.9620

 Excited state  10: excitation energy (eV) =    3.2072
 Total energy for state 10:                 -1973.59271240 au
    Multiplicity: Singlet
    Trans. Mom.: -0.0734 X   0.0037 Y   0.1081 Z
    Strength   :     0.0013423685
    D(170) --> V(  1) amplitude =  0.9695

 Excited state  11: excitation energy (eV) =    3.4231
 Total energy for state 11:                 -1973.58477877 au
    Multiplicity: Singlet
    Trans. Mom.:  0.2819 X   0.0177 Y   0.1740 Z
    Strength   :     0.0092300513
    D(171) --> V(  1) amplitude =  0.8539
    D(172) --> V(  1) amplitude =  0.3088

 Excited state  12: excitation energy (eV) =    3.4658
 Total energy for state 12:                 -1973.58321051 au
    Multiplicity: Singlet
    Trans. Mom.:  0.9377 X  -0.0018 Y   0.5087 Z
    Strength   :     0.0966370762
    D(167) --> V(  1) amplitude =  0.7053
    D(174) --> V(  2) amplitude =  0.5753

 ---------------------------------------------------

                    Orbital Energies (a.u.)
 --------------------------------------------------------------

 Alpha MOs
 -- Occupied --
-10.465 -10.465 -10.465 -10.465 -10.465 -10.465 -10.465 -10.465
-10.465 -10.464 -10.463 -10.462 -10.462 -10.462 -10.462 -10.462
-10.461 -10.461 -10.459 -10.459 -10.459 -10.459 -10.454 -10.453
-10.453 -10.453 -10.449 -10.448 -10.448 -10.448 -10.448 -10.448
-10.447 -10.447 -10.436 -10.436 -10.436 -10.435 -10.430 -10.430
-10.430 -10.430 -10.427 -10.427 -10.424 -10.424 -10.424 -10.424
-10.419 -10.417  -6.945  -6.941  -1.015  -1.015  -0.960  -0.956
 -0.956  -0.954  -0.934  -0.934  -0.906  -0.897  -0.872  -0.868
 -0.867  -0.867  -0.858  -0.856  -0.848  -0.847  -0.818  -0.814
 -0.812  -0.798  -0.779  -0.779  -0.758  -0.756  -0.756  -0.756
 -0.733  -0.730  -0.729  -0.718  -0.688  -0.683  -0.678  -0.668
 -0.650  -0.643  -0.638  -0.638  -0.638  -0.636  -0.597  -0.592
 -0.590  -0.588  -0.583  -0.576  -0.575  -0.551  -0.546  -0.542
 -0.540  -0.539  -0.527  -0.526  -0.521  -0.509  -0.502  -0.500
 -0.495  -0.493  -0.492  -0.486  -0.485  -0.484  -0.480  -0.479
 -0.479  -0.478  -0.475  -0.467  -0.465  -0.464  -0.463  -0.463
 -0.462  -0.460  -0.455  -0.454  -0.449  -0.448  -0.445  -0.443
 -0.442  -0.439  -0.433  -0.429  -0.425  -0.422  -0.416  -0.411
 -0.410  -0.400  -0.399  -0.397  -0.396  -0.394  -0.390  -0.387
 -0.382  -0.379  -0.378  -0.378  -0.376  -0.366  -0.354  -0.349
 -0.348  -0.334  -0.324  -0.318  -0.297  -0.296  -0.277  -0.272
 -0.272  -0.265  -0.263  -0.263  -0.256  -0.250

          Ground-State Mulliken Net Atomic Charges

     Atom                 Charge (a.u.)
  ----------------------------------------
      1 C                    -0.156610
      2 C                    -0.387138
      3 H                     0.244778
      4 C                     0.083904
      5 C                     0.195294
      6 C                    -0.384296
      7 H                     0.240892
      8 C                    -0.220560
      9 H                     0.244761
     10 C                    -0.342541
     11 H                     0.240668
     12 C                    -0.075007
     13 C                     0.233244
     14 C                     0.188422
     15 C                    -0.378036
     16 H                     0.240695
     17 C                    -0.221883
     18 H                     0.244945
     19 C                    -0.340460
     20 H                     0.240562
     21 C                     0.077201
     22 C                    -0.385635
     23 H                     0.243123
     24 C                    -0.155047
     25 B                     0.686497
     26 C                    -0.157059
     27 C                    -0.388814
     28 H                     0.243356
     29 C                     0.085085
     30 C                     0.195279
     31 C                    -0.384363
     32 H                     0.240874
     33 C                    -0.220681
     34 H                     0.244743
     35 C                    -0.343051
     36 H                     0.240851
     37 C                    -0.073947
     38 C                     0.234647
     39 C                     0.185772
     40 C                    -0.376793
     41 H                     0.240726
     42 C                    -0.221801
     43 H                     0.245057
     44 C                    -0.340856
     45 H                     0.240459
     46 C                     0.076962
     47 C                    -0.385441
     48 H                     0.242241
     49 C                    -0.154777
     50 B                     0.690014
     51 C                    -0.225688
     52 C                     0.056716
     53 C                    -0.360627
     54 H                     0.212919
     55 C                     0.118382
     56 C                    -0.352664
     57 H                     0.212119
     58 C                     0.058828
     59 C                    -0.716526
     60 H                     0.232726
     61 H                     0.233317
     62 H                     0.236471
     63 C                    -0.766321
     64 H                     0.242849
     65 H                     0.245724
     66 H                     0.245756
     67 C                    -0.768106
     68 H                     0.243368
     69 H                     0.246082
     70 H                     0.246211
     71 C                    -0.223311
     72 C                     0.054466
     73 C                    -0.358623
     74 H                     0.213191
     75 C                     0.118884
     76 C                    -0.351310
     77 H                     0.212529
     78 C                     0.053895
     79 C                    -0.717434
     80 H                     0.233074
     81 H                     0.234368
     82 H                     0.236028
     83 C                    -0.765807
     84 H                     0.243077
     85 H                     0.245524
     86 H                     0.245314
     87 C                    -0.765871
     88 H                     0.243129
     89 H                     0.245704
     90 H                     0.245383
  ----------------------------------------
  Sum of atomic charges =    -0.000000

                    Cartesian Multipole Moments
 -----------------------------------------------------------------
    Charge (ESU x 10^10)
                -0.0000
    Dipole Moment (Debye)
         X      -0.0514      Y       0.0118      Z      -0.0433
       Tot       0.0682
    Quadrupole Moments (Debye-Ang)
        XX    -253.1229     XY      -0.6265     YY    -302.1729
        XZ      -8.2156     YZ      -0.3010     ZZ    -243.8580

 Total job time:  12396.31s(wall), 39197.14s(cpu)
        *  Thank you very much for using Q-Chem.  Have a nice day.  *
