 Q-Chem 5.1, Q-Chem, Inc., Pleasanton, CA (2018)
 Q-Chem 5.1.1 for Intel X86 EM64T Linux

User input:
--------------------------------------------------------------
$rem
threads 8
jobtype	opt
method PBEh-3c
basis def2-mSVP
mem_static	512
mem_total	6096
sym_ignore	true
solvent_method  pcm
$end

$pcm
theory iefpcm
$end
$solvent
dielectric 36
$end

$molecule
read gsopt.mol
$end

--------------------------------------------------------------

   14   -2106.1984312988      9.61e-09  Convergence criterion met
 Total energy in the final basis set =    -2106.1984312988
   13   -2106.2011845111      8.25e-09  Convergence criterion met
 Total energy in the final basis set =    -2106.2011845111
   13   -2106.2023024454      8.00e-09  Convergence criterion met
 Total energy in the final basis set =    -2106.2023024454
   13   -2106.2031166428      8.04e-09  Convergence criterion met
 Total energy in the final basis set =    -2106.2031166428
   13   -2106.2034054167      8.23e-09  Convergence criterion met
 Total energy in the final basis set =    -2106.2034054167
   13   -2106.2037772651      8.20e-09  Convergence criterion met
 Total energy in the final basis set =    -2106.2037772651
   13   -2106.2037876279      8.17e-09  Convergence criterion met
 Total energy in the final basis set =    -2106.2037876279
   13   -2106.2038539417      8.22e-09  Convergence criterion met
   13   -2106.2039650442      8.34e-09  Convergence criterion met
 Total energy in the final basis set =    -2106.2039650442
   13   -2106.2039742492      8.29e-09  Convergence criterion met
 Total energy in the final basis set =    -2106.2039742492
   13   -2106.2039803900      8.31e-09  Convergence criterion met
 Total energy in the final basis set =    -2106.2039803900
   13   -2106.2039930187      8.32e-09  Convergence criterion met
 Total energy in the final basis set =    -2106.2039930187
   13   -2106.2040030162      8.33e-09  Convergence criterion met
 Total energy in the final basis set =    -2106.2040030162
   13   -2106.2040078427      8.32e-09  Convergence criterion met
 Total energy in the final basis set =    -2106.2040078427

             Standard Nuclear Orientation (Angstroms)
    I     Atom           X                Y                Z
 ----------------------------------------------------------------
    1      N      -0.3174982083     0.0124554467     0.3533423475
    2      C      -0.5869881258     0.0142396597     1.4622981049
    3      C      -0.9577109292     0.0109026002     2.8532985607
    4      H      -2.0280277338    -0.1707082302     2.9401801414
    5      H      -0.4143884935    -0.7759180484     3.3737763132
    6      H      -0.7163331316     0.9744588732     3.2986764166
    7      B       0.3082415907     0.0527145494    -1.0995615958
    8      C      -0.7941052568     0.0278654474    -2.2924330232
    9      C      -2.1737115867    -0.2264779596    -2.1651807265
   10      C      -3.0056726874    -0.2087796519    -3.2864159814
   11      H      -4.0642764613    -0.4079659163    -3.1518731621
   12      C      -2.5295670134     0.0429318696    -4.5624337983
   13      C      -1.1657077166     0.2576221128    -4.6948800679
   14      H      -0.7528746976     0.4299988883    -5.6840710120
   15      C      -0.3059099637     0.2522733373    -3.6004193903
   16      C      -3.4482808483     0.0917566340    -5.7489502550
   17      H      -2.9425553802    -0.2271193218    -6.6606657376
   18      H      -4.3221302540    -0.5448280197    -5.6087572416
   19      H      -3.8139555298     1.1063089760    -5.9235058737
   20      C       1.1519334453     0.4894381730    -3.9005489576
   21      H       1.8081733271    -0.2135460408    -3.3881975725
   22      H       1.3409246226     0.3910834010    -4.9698817326
   23      H       1.4724487736     1.4901440960    -3.6068737940
   24      C      -2.8556017275    -0.5492429558    -0.8578754576
   25      H      -3.8932141271    -0.8315392479    -1.0358787379
   26      H      -2.3869148056    -1.3831492740    -0.3352019136
   27      H      -2.8752623050     0.3012807914    -0.1756108001
   28      C       1.2394515736    -1.2629950374    -1.0994070543
   29      C       0.6403017715    -2.5064447371    -1.3074906779
   30      H      -0.4226604348    -2.5715907953    -1.5173613768
   31      C       1.3963992669    -3.6582626143    -1.2462919951
   32      C       2.6226983984    -1.1921926939    -0.8371022607
   33      C       3.3871796979    -2.3745850279    -0.7867845125
   34      H       4.4513241036    -2.3168762774    -0.5847972636
   35      C       2.7861944840    -3.5992609778    -0.9837079936
   36      C       3.3007088122    -4.9758283390    -0.9603240655
   37      C       4.5178560700    -5.5689037916    -0.7460694665
   38      H       5.4106166909    -4.9892328495    -0.5464244587
   39      C       2.1922628841    -5.8111038572    -1.2095242334
   40      C       2.2424549114    -7.2027506484    -1.2496152215
   41      C       1.0133411113    -5.0643867880    -1.3932524787
   42      C      -0.1614398474    -5.7317508557    -1.6325946376
   43      H      -1.0987817886    -5.2086678522    -1.7788616685
   44      C      -0.1378865595    -7.1467898150    -1.6844354718
   45      H      -1.0648756860    -7.6731365913    -1.8730491353
   46      C       1.0179460611    -7.8708586320    -1.5001239313
   47      H       0.9909028097    -8.9531379622    -1.5438701528
   48      C       4.6019254760    -6.9848537586    -0.7835826504
   49      H       5.5658956981    -7.4463219083    -0.6118185031
   50      C       3.5123373526    -7.7889638999    -1.0247915057
   51      H       3.6237714207    -8.8664926740    -1.0403792551
   52      B       3.3046326405     0.1841764582    -0.6195114695
   53      C       2.4987127701     1.5014345099    -0.7720224496
   54      C       3.1448026135     2.7509743864    -0.6782595634
   55      H       4.2135040040     2.7886192230    -0.4941339626
   56      C       2.4249864091     3.9194632251    -0.8206320687
   57      C       1.1119926901     1.4497004002    -1.0203737712
   58      C       0.3874500740     2.6353929538    -1.1472686538
   59      H      -0.6811882694     2.6009550522    -1.3357771047
   60      C       1.0299953478     3.8514676949    -1.0528575953
   61      C       2.8031326502     5.3375674105    -0.7754265688
   62      C       3.9661234810     6.0347857057    -0.5857608631
   63      H       4.9130113669     5.5358341511    -0.4199757062
   64      C       1.6144804113     6.0684615522    -0.9828280312
   65      C       1.5317599316     7.4557508995    -1.0106231882
   66      C       0.5107681430     5.2122825743    -1.1562174394
   67      C      -0.7290398048     5.7570705708    -1.3668201302
   68      H      -1.6102289298     5.1420454284    -1.5051497982
   69      C       0.2410567084     7.9997160955    -1.2315684959
   70      H       0.1054201645     9.0738175801    -1.2660947564
   71      C      -0.8429177442     7.1674902726    -1.4017326983
   72      H      -1.8197028832     7.6033007207    -1.5682211689
   73      C       2.7492432093     8.1528768796    -0.8122709228
   74      H       2.7623338674     9.2358263936    -0.8203834844
   75      C       3.9154337881     7.4517988429    -0.6082781807
   76      H       4.8363173158     8.0000586994    -0.4574214806
   77      C       4.8334479100     0.2202569371    -0.2602637272
   78      C       5.2473513705     0.1331163438     1.0720082674
   79      C       6.6063847564     0.1413708013     1.3767822495
   80      H       6.9177108656     0.0747307682     2.4144725145
   81      C       7.5721400449     0.2281066421     0.3813692219
   82      C       7.1479661787     0.3045809545    -0.9422150219
   83      H       7.8871609539     0.3642946585    -1.7352082137
   84      C       5.7978346384     0.3010277895    -1.2728615771
   85      C       9.0363899089     0.2410453863     0.7147666990
   86      H       9.2052079044     0.0801131622     1.7789115422
   87      H       9.5758231135    -0.5356650729     0.1703806644
   88      H       9.4958504402     1.1944363310     0.4471854799
   89      C       5.3667099339     0.3689550492    -2.7127285103
   90      H       6.2203796943     0.4271834491    -3.3875702669
   91      H       4.7831292496    -0.5103182235    -2.9971655786
   92      H       4.7360768654     1.2407418393    -2.9024384371
   93      C       4.2231881832     0.0136681777     2.1674441914
   94      H       4.6866415550    -0.0142601723     3.1534360648
   95      H       3.5220875867     0.8516458723     2.1569431344
   96      H       3.6288803856    -0.8968446475     2.0571394934
 ----------------------------------------------------------------

   13   -2106.2040075267      8.28e-09  Convergence criterion met
 Total energy in the final basis set =    -2106.2040075267
 Final energy is   -2106.20400752666
 **  OPTIMIZATION CONVERGED  **

                    Orbital Energies (a.u.)
 --------------------------------------------------------------

 Alpha MOs
 -- Occupied --
-14.712 -10.556 -10.486 -10.464 -10.464 -10.462 -10.462 -10.462
-10.461 -10.461 -10.460 -10.460 -10.460 -10.460 -10.459 -10.459
-10.459 -10.457 -10.457 -10.457 -10.457 -10.456 -10.456 -10.456
-10.455 -10.450 -10.450 -10.450 -10.450 -10.449 -10.447 -10.447
-10.447 -10.445 -10.444 -10.442 -10.441 -10.433 -10.432 -10.432
-10.432 -10.427 -10.427 -10.426 -10.426 -10.425 -10.425 -10.425
-10.425 -10.423 -10.422 -10.418 -10.417  -6.939  -6.935  -1.087
 -1.014  -1.014  -0.960  -0.956  -0.956  -0.951  -0.931  -0.931
 -0.905  -0.897  -0.883  -0.870  -0.869  -0.864  -0.864  -0.849
 -0.849  -0.844  -0.844  -0.818  -0.810  -0.808  -0.801  -0.780
 -0.776  -0.758  -0.758  -0.756  -0.749  -0.731  -0.725  -0.723
 -0.717  -0.697  -0.685  -0.676  -0.660  -0.656  -0.644  -0.643
 -0.640  -0.636  -0.634  -0.630  -0.590  -0.588  -0.585  -0.582
 -0.579  -0.572  -0.570  -0.560  -0.548  -0.542  -0.541  -0.540
 -0.539  -0.534  -0.528  -0.523  -0.522  -0.509  -0.503  -0.497
 -0.493  -0.491  -0.489  -0.487  -0.485  -0.485  -0.480  -0.479
 -0.478  -0.477  -0.474  -0.473  -0.465  -0.464  -0.464  -0.463
 -0.462  -0.462  -0.460  -0.455  -0.452  -0.451  -0.450  -0.446
 -0.444  -0.437  -0.436  -0.431  -0.429  -0.427  -0.424  -0.423
 -0.419  -0.411  -0.406  -0.403  -0.395  -0.395  -0.394  -0.394
 -0.388  -0.387  -0.383  -0.381  -0.379  -0.379  -0.372  -0.368
 -0.357  -0.349  -0.341  -0.329  -0.325  -0.313  -0.312  -0.295
 -0.294  -0.275  -0.274  -0.270  -0.266  -0.262  -0.255  -0.254
 -0.251

          Ground-State Mulliken Net Atomic Charges

     Atom                 Charge (a.u.)
  ----------------------------------------
      1 N                    -0.189310
      2 C                     0.268737
      3 C                    -0.721446
      4 H                     0.320437
      5 H                     0.321478
      6 H                     0.321119
      7 B                     0.817318
      8 C                    -0.188507
      9 C                     0.018283
     10 C                    -0.354006
     11 H                     0.222870
     12 C                     0.102159
     13 C                    -0.353129
     14 H                     0.222911
     15 C                     0.026133
     16 C                    -0.722775
     17 H                     0.237020
     18 H                     0.236510
     19 H                     0.240327
     20 C                    -0.768356
     21 H                     0.254730
     22 H                     0.242524
     23 H                     0.243342
     24 C                    -0.760516
     25 H                     0.248266
     26 H                     0.235895
     27 H                     0.235552
     28 C                    -0.163549
     29 C                    -0.415308
     30 H                     0.234069
     31 C                     0.068596
     32 C                    -0.160748
     33 C                    -0.406542
     34 H                     0.241213
     35 C                     0.072945
     36 C                     0.178268
     37 C                    -0.408996
     38 H                     0.252685
     39 C                    -0.071988
     40 C                     0.210448
     41 C                     0.164598
     42 C                    -0.399203
     43 H                     0.253637
     44 C                    -0.239040
     45 H                     0.260442
     46 C                    -0.351513
     47 H                     0.257959
     48 C                    -0.236585
     49 H                     0.258963
     50 C                    -0.356784
     51 H                     0.257022
     52 B                     0.643510
     53 C                    -0.151086
     54 C                    -0.412788
     55 H                     0.238679
     56 C                     0.074926
     57 C                    -0.192904
     58 C                    -0.412706
     59 H                     0.231888
     60 C                     0.069940
     61 C                     0.174996
     62 C                    -0.408490
     63 H                     0.252896
     64 C                    -0.070773
     65 C                     0.214227
     66 C                     0.163560
     67 C                    -0.397397
     68 H                     0.254116
     69 C                    -0.353016
     70 H                     0.257606
     71 C                    -0.239621
     72 H                     0.260279
     73 C                    -0.358920
     74 H                     0.256584
     75 C                    -0.236860
     76 H                     0.258861
     77 C                    -0.212362
     78 C                     0.039950
     79 C                    -0.377156
     80 H                     0.228354
     81 C                     0.103752
     82 C                    -0.364466
     83 H                     0.227110
     84 C                     0.048209
     85 C                    -0.723684
     86 H                     0.239371
     87 H                     0.239121
     88 H                     0.240230
     89 C                    -0.773342
     90 H                     0.251705
     91 H                     0.245077
     92 H                     0.245519
     93 C                    -0.775211
     94 H                     0.252827
     95 H                     0.244563
     96 H                     0.244771
  ----------------------------------------
  Sum of atomic charges =    -0.000000

                    Cartesian Multipole Moments
 -----------------------------------------------------------------
    Charge (ESU x 10^10)
                -0.0000
    Dipole Moment (Debye)
         X      -5.0287      Y      -0.2351      Z       8.6634
       Tot      10.0199
    Quadrupole Moments (Debye-Ang)
        XX    -283.9292     XY      -0.1662     YY    -279.5778
        XZ       2.8738     YZ      -1.1671     ZZ    -308.9755

 Total job time:  43196.38s(wall), 290474.59s(cpu)
        *  Thank you very much for using Q-Chem.  Have a nice day.  *
