 Q-Chem 5.1, Q-Chem, Inc., Pleasanton, CA (2018)
 Q-Chem 5.1.1 for Intel X86 EM64T Linux

User input:
--------------------------------------------------------------
$rem
threads 8
jobtype	opt
method PBEh-3c
basis def2-mSVP
mem_static	512
mem_total	6096
sym_ignore	true
solvent_method  pcm
$end

$pcm
theory iefpcm
$end
$solvent
dielectric 36
$end

$molecule
0 1
 C     0.000000     0.000000     0.000000
 H     0.000000     0.000000     1.089000
 H     1.026720     0.000000    -0.362996
 C    -0.683537    -1.183920    -0.483333
 H    -0.513360     0.889165    -0.363000
 N    -1.247410    -2.160577    -0.860042
$end

--------------------------------------------------------------

   11    -132.4606444509      3.38e-09  Convergence criterion met
 Total energy in the final basis set =     -132.4606444509
   11    -132.4640228965      1.15e-09  Convergence criterion met
 Total energy in the final basis set =     -132.4640228965
   11    -132.4640572483      1.09e-09  Convergence criterion met
 Total energy in the final basis set =     -132.4640572483
   11    -132.4640603800      5.15e-09  Convergence criterion met
 Total energy in the final basis set =     -132.4640603800
   11    -132.4640653852      5.12e-09  Convergence criterion met
 Total energy in the final basis set =     -132.4640653852

             Standard Nuclear Orientation (Angstroms)
    I     Atom           X                Y                Z
 ----------------------------------------------------------------
    1      C      -0.0058878829    -0.0101996906    -0.0028959144
    2      H       0.0022804303     0.0039543813     1.0854156414
    3      H       1.0213480837    -0.0016793029    -0.3626583057
    4      C      -0.6899785157    -1.1951526740    -0.4796446997
    5      H      -0.5121473613     0.8836461345    -0.3626721290
    6      N      -1.2332017541    -2.1359008484    -0.8579155927
 ----------------------------------------------------------------

   12    -132.4640658933      8.69e-10  Convergence criterion met
 Total energy in the final basis set =     -132.4640658933
 Final energy is   -132.464065893350
 **  OPTIMIZATION CONVERGED  **

                    Orbital Energies (a.u.)
 --------------------------------------------------------------

 Alpha MOs
 -- Occupied --
-14.647 -10.501 -10.470  -1.019  -0.855  -0.571  -0.511  -0.511
 -0.441  -0.388  -0.388

          Ground-State Mulliken Net Atomic Charges

     Atom                 Charge (a.u.)
  ----------------------------------------
      1 C                    -0.741996
      2 H                     0.301414
      3 H                     0.301400
      4 C                     0.115474
      5 H                     0.301411
      6 N                    -0.277704
  ----------------------------------------
  Sum of atomic charges =     0.000000

                    Cartesian Multipole Moments
 -----------------------------------------------------------------
    Charge (ESU x 10^10)
                -0.0000
    Dipole Moment (Debye)
         X       2.3003      Y       3.9841      Z       1.6025
       Tot       4.8716
    Quadrupole Moments (Debye-Ang)
        XX     -20.5785     XY      -5.7721     YY     -27.2432
        XZ      -2.3189     YZ      -4.0164     ZZ     -18.8594

 Total job time:  9.95s(wall), 79.01s(cpu)
        *  Thank you very much for using Q-Chem.  Have a nice day.  *
