 Q-Chem 5.1, Q-Chem, Inc., Pleasanton, CA (2018)
 Q-Chem 5.1.1 for Intel X86 EM64T Linux

User input:
--------------------------------------------------------------
$rem
threads        26
method sosadc(2)
adc_c_t 1202
basis  vdz
aux_basis rimp2-VDZ
mem_total     480000
mem_static    2000
ee_singlets   2
adc_davidson_maxsubspace        24
adc_davidson_maxiter            150
adc_davidson_conv		4
solvent_method    pcm
n_frozen_core 	fc
$end

$solvent
dielectric	2.38
dielectric_infi	2.25
$end

$pcm
vdwscale 1.3
theory iefpcm
$end

$molecule
read moms1opt_tol.mol
$end

--------------------------------------------------------------

   17   -1845.4341156484      7.23E-09 Convergence criterion met
 Total energy in the final basis set = -1845.43411565
  Excited state 1 (singlet, A)                                     [converged]
  Term symbol:  2 (1) A                                     R^2 =  1.65618e-09
  Excited state 2 (singlet, A)                                     [converged]
  Term symbol:  3 (1) A                                     R^2 =  8.91020e-05
 Total job time:  38356.09s(wall), 355836.67s(cpu)
        *  Thank you very much for using Q-Chem.  Have a nice day.  *
 Q-Chem 5.1, Q-Chem, Inc., Pleasanton, CA (2018)
 Q-Chem 5.1.1 for Intel X86 EM64T Linux

User input:
--------------------------------------------------------------

$rem
threads        26
method sosadc(2)
adc_c_t 1202
basis  vdz
aux_basis rimp2-VDZ
mem_total     480000
mem_static    2000
ee_singlets   1
adc_davidson_maxsubspace        24
adc_davidson_maxiter            100
adc_davidson_conv		6
solvent_method    pcm
n_frozen_core   fc
$end

$pcm
theory iefpcm
eqsolv  30
eqstate 1
vdwscale 1.3
$end

$solvent
dielectric      2.38
dielectric_infi 2.25
$end

$molecule
read
$end

--------------------------------------------------------------

   17   -1845.4105226464      7.50E-09 Convergence criterion met
 Total energy in the final basis set = -1845.41052265
  Excited state 1 (EqS-reference, singlet, A)                      [converged]
  Term symbol:  2 (1) A                                     R^2 =  9.54101e-07
   17   -1845.4006978924      7.45E-09 Convergence criterion met
  Excited state 1 (EqS-reference, singlet, A)                      [converged]
  Term symbol:  2 (1) A                                     R^2 =  6.83121e-07
   17   -1845.3994314689      7.52E-09 Convergence criterion met
  Excited state 1 (EqS-reference, singlet, A)                      [converged]
  Term symbol:  2 (1) A                                     R^2 =  6.46296e-07
   17   -1845.3992729413      7.53E-09 Convergence criterion met
  Excited state 1 (EqS-reference, singlet, A)                      [converged]
  Term symbol:  2 (1) A                                     R^2 =  6.41969e-07
   17   -1845.3992525617      7.54E-09 Convergence criterion met
  Excited state 1 (EqS-reference, singlet, A)                      [converged]
  Term symbol:  2 (1) A                                     R^2 =  6.41355e-07

                    Orbital Energies (a.u.)
 --------------------------------------------------------------

 Alpha MOs
 -- Occupied --
-15.652 -15.647 -15.568 -11.359 -11.356 -11.354 -11.349 -11.327
-11.321 -11.317 -11.312 -11.308 -11.276 -11.276 -11.273 -11.271
-11.268 -11.267 -11.266 -11.265 -11.264 -11.264 -11.264 -11.262
-11.261 -11.260 -11.259 -11.258 -11.258 -11.256 -11.254 -11.243
-11.240 -11.239 -11.226 -11.212 -11.211 -11.211 -11.209 -11.208
-11.207 -11.204 -11.203 -11.199 -11.198 -11.186 -11.186  -1.298
 -1.289  -1.277  -1.248  -1.224  -1.178  -1.166  -1.144  -1.130
 -1.127  -1.123  -1.097  -1.075  -1.068  -1.064  -1.033  -1.026
 -1.018  -0.997  -0.996  -0.984  -0.976  -0.961  -0.954  -0.930
 -0.907  -0.899  -0.885  -0.879  -0.848  -0.843  -0.834  -0.828
 -0.823  -0.818  -0.812  -0.799  -0.783  -0.774  -0.750  -0.746
 -0.727  -0.721  -0.716  -0.707  -0.702  -0.694  -0.683  -0.676
 -0.670  -0.657  -0.648  -0.643  -0.634  -0.629  -0.625  -0.623
 -0.621  -0.618  -0.617  -0.616  -0.614  -0.612  -0.607  -0.602
 -0.598  -0.589  -0.586  -0.578  -0.571  -0.570  -0.566  -0.564
 -0.561  -0.553  -0.549  -0.542  -0.536  -0.535  -0.529  -0.524
 -0.521  -0.520  -0.518  -0.516  -0.514  -0.509  -0.505  -0.504
 -0.500  -0.492  -0.490  -0.489  -0.474  -0.472  -0.459  -0.437
 -0.428  -0.425  -0.413  -0.403  -0.391  -0.368  -0.360  -0.340
 -0.338  -0.316  -0.309  -0.308  -0.307  -0.235

          Ground-State Mulliken Net Atomic Charges

     Atom                 Charge (a.u.)
  ----------------------------------------
      1 N                    -0.940130
      2 C                     0.339370
      3 C                     0.361359
      4 C                    -0.001852
      5 C                    -0.155941
      6 H                     0.126855
      7 C                    -0.115782
      8 H                     0.109130
      9 C                    -0.070241
     10 H                     0.110842
     11 C                    -0.165260
     12 H                     0.134016
     13 C                    -0.005092
     14 C                    -0.155587
     15 H                     0.126298
     16 C                    -0.114882
     17 H                     0.107514
     18 C                    -0.076120
     19 H                     0.108408
     20 C                    -0.209619
     21 H                     0.168535
     22 C                     0.192368
     23 C                    -0.105599
     24 H                     0.173534
     25 C                    -0.002027
     26 H                     0.144963
     27 C                    -0.161967
     28 H                     0.115518
     29 C                     0.093779
     30 C                    -0.120190
     31 C                    -0.127637
     32 H                     0.143473
     33 H                     0.140132
     34 C                    -0.366737
     35 C                    -0.166717
     36 H                     0.133622
     37 H                     0.179976
     38 C                    -0.063103
     39 C                    -0.133981
     40 H                     0.144372
     41 C                    -0.020623
     42 C                    -0.237957
     43 N                     0.101370
     44 C                    -0.031870
     45 C                    -0.109294
     46 H                     0.203220
     47 C                     0.100207
     48 C                    -0.238321
     49 N                     0.105535
     50 C                    -0.386453
     51 C                    -0.079345
     52 C                    -0.055825
     53 H                     0.118458
     54 C                    -0.115563
     55 H                     0.134430
     56 C                    -0.091910
     57 H                     0.133125
     58 C                    -0.080084
     59 H                     0.126380
     60 C                    -0.011563
     61 C                    -0.031675
     62 C                    -0.084384
     63 H                     0.128721
     64 C                    -0.102555
     65 H                     0.131329
     66 C                    -0.116298
     67 H                     0.126843
     68 C                    -0.099140
     69 H                     0.122214
     70 C                     0.063992
     71 C                    -0.170768
     72 H                     0.118181
     73 H                     0.118654
     74 H                     0.125931
     75 C                    -0.143385
     76 H                     0.114358
     77 H                     0.123753
     78 H                     0.114714
  ----------------------------------------
  Sum of atomic charges =    -0.000000

                    Cartesian Multipole Moments
 -----------------------------------------------------------------
    Charge (ESU x 10^10)
                -0.0000
    Dipole Moment (Debye)
         X       5.9177      Y      -5.1689      Z       8.8614
       Tot      11.8431
    Quadrupole Moments (Debye-Ang)
        XX    -320.2854     XY      51.2955     YY    -303.1068
        XZ     -76.5647     YZ      57.7336     ZZ    -360.3506

 Total job time:  26357.58s(wall), 332851.05s(cpu)
        *  Thank you very much for using Q-Chem.  Have a nice day.  *
 Q-Chem 5.1, Q-Chem, Inc., Pleasanton, CA (2018)
 Q-Chem 5.1.1 for Intel X86 EM64T Linux

User input:
--------------------------------------------------------------

$rem
threads        26
method sosadc(2)
adc_c_t 1202
basis vDZ*
aux_basis riMP2-VDZ
mem_total     480000
mem_static    2000
ee_singlets   2
adc_davidson_maxsubspace        24
adc_davidson_maxiter            100
solvent_method  pcm
n_frozen_core   fc
$end

$pcm
theory iefpcm
eqsolv  1
eqstate 1
vdwscale 1.3
$end

$solvent
dielectric      2.38
dielectric_infi 2.25
$end

$molecule
read
$end

--------------------------------------------------------------

             Standard Nuclear Orientation (Angstroms)
    I     Atom           X                Y                Z
 ----------------------------------------------------------------
    1      N       0.0000000000     0.0000000000     0.0000000000
    2      C       0.0000000000     0.0000000000     1.3777940000
    3      C       1.1582939163     0.0000000000    -0.7474551064
    4      C       1.2028907607    -0.1808698506     2.0839154358
    5      C       1.1311082926    -0.2263101379     3.4689172746
    6      H       2.0297665848    -0.3904260099     4.0471580676
    7      C      -0.0680179056    -0.0704370924     4.1446174175
    8      H      -0.0832545019    -0.1114165094     5.2252203347
    9      C      -1.2456466760     0.1511436374     3.4350913649
   10      H      -2.1812002989     0.2993537234     3.9557833668
   11      C      -1.2179473285     0.1878832393     2.0634578745
   12      H      -2.1302974962     0.3753933491     1.5177581630
   13      C       2.4063009813    -0.1218839390    -0.1029935401
   14      C       3.5425605545    -0.0911840833    -0.8968894792
   15      H       4.5167718082    -0.1968960956    -0.4406154582
   16      C       3.4698903827     0.0581619532    -2.2728517643
   17      H       4.3791682144     0.0853933400    -2.8576852199
   18      C       2.2304576972     0.1573521630    -2.8992593456
   19      H       2.1608009436     0.2664628106    -3.9721612748
   20      C       1.0811767388     0.1152473144    -2.1508230605
   21      H       0.1273000258     0.1870696149    -2.6508838727
   22      C      -1.2681914881    -0.0053643238    -0.6706748286
   23      C      -1.7136427770     1.1436216604    -1.2795566547
   24      H      -1.0923556311     2.0281151964    -1.2280930308
   25      C      -2.0193229773    -1.1691658861    -0.6945567089
   26      H      -1.6676601259    -2.0786184538    -0.2248870714
   27      C      -3.2458366306    -1.1114777875    -1.3179326275
   28      H      -3.8710398240    -1.9956903399    -1.3152828368
   29      C      -2.9196700397     1.1861691525    -1.9831037034
   30      C      -3.7265898720     0.0424870981    -1.9518732057
   31      C      -5.1274419578    -0.0188038698    -2.4860670870
   32      H      -5.6238973458    -0.8763047482    -2.0267856215
   33      H      -5.1286010726    -0.2065686262    -3.5633862255
   34      C       2.5209546297    -0.3825038082     1.3803469267
   35      C      -5.9144132476     1.2601170384    -2.1959847851
   36      H      -6.9791576699     1.0258668013    -2.1494001424
   37      H      -5.6442779226     1.6190347461    -1.1951485228
   38      C      -5.6824726533     2.2660758601    -3.2799847032
   39      C      -6.7544698169     2.6734072062    -4.0269232611
   40      H      -7.7476558070     2.3664553885    -3.7167884753
   41      C      -6.6416469136     3.4321409906    -5.2086701123
   42      C      -7.7869960057     3.8177580567    -5.9104819682
   43      N      -8.7514248325     4.1250324118    -6.4839239889
   44      C      -5.3039364493     3.7303569674    -5.6607423891
   45      C      -4.2196414124     3.3351459193    -4.8716088146
   46      H      -3.2385569060     3.6235124079    -5.2244650356
   47      C      -4.3453363197     2.6288335343    -3.6908521181
   48      C      -5.0614095426     4.4028809926    -6.8696250211
   49      N      -4.8524325437     4.9584034657    -7.8670154732
   50      C      -3.1273365006     2.4945328213    -2.7791581715
   51      C      -1.8310459094     2.6965044323    -3.5621005633
   52      C      -1.3145213234     1.8758687132    -4.5466192693
   53      H      -1.8586639648     0.9974429780    -4.8731959985
   54      C      -0.1009211714     2.2169134639    -5.1310406823
   55      H       0.3076024482     1.5992912850    -5.9208162890
   56      C       0.5821441311     3.3590945761    -4.7228604415
   57      H       1.5232128023     3.6156309100    -5.1916732903
   58      C       0.0626564190     4.1791910094    -3.7313605942
   59      H       0.5971354779     5.0692026540    -3.4235464582
   60      C      -1.1527199417     3.8408700617    -3.1520879615
   61      C      -1.9277228265     4.4793616083    -2.0925481525
   62      C      -1.6959798595     5.6455738462    -1.3802097907
   63      H      -0.8221629153     6.2535794989    -1.5794012474
   64      C      -2.6123090401     6.0306201190    -0.4111601114
   65      H      -2.4522976032     6.9426573212     0.1487283737
   66      C      -3.7416135090     5.2578536745    -0.1627594096
   67      H      -4.4532640669     5.5748717416     0.5885899714
   68      C      -3.9731917499     4.0886371584    -0.8768287423
   69      H      -4.8646502896     3.5060794574    -0.6855111382
   70      C      -3.0611772686     3.7026695748    -1.8412071552
   71      C       3.5801589634     0.5458609434     1.9977621344
   72      H       4.5552925066     0.3942725873     1.5388836804
   73      H       3.7068626968     0.3502277663     3.0610536285
   74      H       3.3032899829     1.5921185625     1.8748282763
   75      C       2.9386151376    -1.8588311289     1.5692435426
   76      H       3.8987998631    -2.0488715501     1.0901066359
   77      H       2.2029403078    -2.5374556571     1.1373270426
   78      H       3.0362140356    -2.0954933501     2.6288603689
 ----------------------------------------------------------------

   17   -1846.1058077499      5.10E-09 Convergence criterion met
 Total energy in the final basis set = -1846.10580775
