 Q-Chem 5.1, Q-Chem, Inc., Pleasanton, CA (2018)
 Q-Chem 5.1.1 for Intel X86 EM64T Linux

User input:
--------------------------------------------------------------
$rem
threads        26
method sosadc(2)
adc_c_t 1202
basis  vdz
aux_basis rimp2-VDZ
mem_total     480000
mem_static    2000
ee_singlets   2
adc_davidson_maxsubspace        24
adc_davidson_maxiter            150
adc_davidson_conv		4
solvent_method    pcm
n_frozen_core 	fc
$end

$solvent
dielectric	2.38
dielectric_infi	2.25
$end

$pcm
vdwscale 1.3
$end

$molecule
read moms1opt_tol.mol
$end

--------------------------------------------------------------

   17   -1845.4369274151      7.09E-09 Convergence criterion met
 Total energy in the final basis set = -1845.43692742
  Excited state 1 (singlet, A)                                     [converged]
  Term symbol:  2 (1) A                                     R^2 =  1.24890e-09
  Excited state 2 (singlet, A)                                     [converged]
  Term symbol:  3 (1) A                                     R^2 =  8.01729e-05

                    Orbital Energies (a.u.)
 --------------------------------------------------------------

 Alpha MOs
 -- Occupied --
-15.617 -15.613 -15.594 -11.327 -11.324 -11.318 -11.315 -11.301
-11.299 -11.295 -11.295 -11.293 -11.288 -11.285 -11.284 -11.274
-11.266 -11.265 -11.262 -11.261 -11.260 -11.258 -11.255 -11.255
-11.255 -11.254 -11.254 -11.253 -11.252 -11.252 -11.251 -11.251
-11.250 -11.249 -11.249 -11.243 -11.242 -11.240 -11.239 -11.238
-11.238 -11.233 -11.231 -11.229 -11.228 -11.218 -11.218  -1.302
 -1.263  -1.254  -1.233  -1.202  -1.182  -1.160  -1.157  -1.154
 -1.122  -1.114  -1.099  -1.078  -1.065  -1.059  -1.031  -1.026
 -1.025  -1.014  -1.012  -0.991  -0.991  -0.970  -0.954  -0.931
 -0.931  -0.892  -0.877  -0.873  -0.860  -0.859  -0.848  -0.826
 -0.817  -0.813  -0.811  -0.806  -0.800  -0.777  -0.751  -0.745
 -0.738  -0.733  -0.720  -0.706  -0.696  -0.688  -0.679  -0.679
 -0.653  -0.652  -0.648  -0.646  -0.645  -0.640  -0.637  -0.633
 -0.624  -0.620  -0.618  -0.613  -0.610  -0.606  -0.601  -0.598
 -0.595  -0.593  -0.591  -0.591  -0.579  -0.578  -0.571  -0.561
 -0.557  -0.552  -0.550  -0.543  -0.538  -0.532  -0.530  -0.527
 -0.527  -0.524  -0.522  -0.516  -0.512  -0.509  -0.505  -0.503
 -0.498  -0.497  -0.491  -0.490  -0.488  -0.485  -0.475  -0.468
 -0.458  -0.454  -0.402  -0.385  -0.373  -0.359  -0.351  -0.348
 -0.346  -0.340  -0.338  -0.335  -0.306  -0.265

          Ground-State Mulliken Net Atomic Charges

     Atom                 Charge (a.u.)
  ----------------------------------------
      1 N                    -0.939842
      2 C                     0.327222
      3 C                     0.346378
      4 C                    -0.011730
      5 C                    -0.164884
      6 H                     0.129686
      7 C                    -0.126819
      8 H                     0.114255
      9 C                    -0.076403
     10 H                     0.120620
     11 C                    -0.169783
     12 H                     0.146986
     13 C                    -0.014873
     14 C                    -0.165714
     15 H                     0.128043
     16 C                    -0.125914
     17 H                     0.112714
     18 C                    -0.080011
     19 H                     0.122605
     20 C                    -0.211359
     21 H                     0.183466
     22 C                     0.195943
     23 C                    -0.114085
     24 H                     0.166924
     25 C                    -0.029315
     26 H                     0.130860
     27 C                    -0.162929
     28 H                     0.120523
     29 C                     0.094444
     30 C                    -0.116657
     31 C                    -0.125081
     32 H                     0.141114
     33 H                     0.155426
     34 C                    -0.361023
     35 C                    -0.168761
     36 H                     0.144012
     37 H                     0.173536
     38 C                    -0.061863
     39 C                    -0.114992
     40 H                     0.153849
     41 C                    -0.003741
     42 C                    -0.226004
     43 N                     0.097059
     44 C                    -0.019219
     45 C                    -0.101900
     46 H                     0.199828
     47 C                     0.100035
     48 C                    -0.226886
     49 N                     0.096032
     50 C                    -0.381076
     51 C                    -0.082223
     52 C                    -0.050966
     53 H                     0.127026
     54 C                    -0.123929
     55 H                     0.133273
     56 C                    -0.102067
     57 H                     0.130629
     58 C                    -0.088904
     59 H                     0.127799
     60 C                    -0.009086
     61 C                    -0.033050
     62 C                    -0.089827
     63 H                     0.129078
     64 C                    -0.107208
     65 H                     0.131181
     66 C                    -0.120703
     67 H                     0.129183
     68 C                    -0.097349
     69 H                     0.137208
     70 C                     0.061630
     71 C                    -0.175424
     72 H                     0.122176
     73 H                     0.121654
     74 H                     0.123670
     75 C                    -0.148143
     76 H                     0.116898
     77 H                     0.120051
     78 H                     0.116720
  ----------------------------------------
  Sum of atomic charges =    -0.000000

                    Cartesian Multipole Moments
 -----------------------------------------------------------------
    Charge (ESU x 10^10)
                -0.0000
    Dipole Moment (Debye)
         X       2.8708      Y      -4.1443      Z       6.9026
       Tot       8.5477
    Quadrupole Moments (Debye-Ang)
        XX    -303.2034     XY      43.2888     YY    -300.9296
        XZ     -64.2420     YZ      52.8155     ZZ    -351.9538

 Total job time:  38744.80s(wall), 360687.89s(cpu)
        *  Thank you very much for using Q-Chem.  Have a nice day.  *
 Q-Chem 5.1, Q-Chem, Inc., Pleasanton, CA (2018)
 Q-Chem 5.1.1 for Intel X86 EM64T Linux

User input:
--------------------------------------------------------------

$rem
threads        26
method sosadc(2)
adc_c_t 1202
basis  vdz
aux_basis rimp2-VDZ
mem_total     480000
mem_static    2000
ee_singlets   1
adc_davidson_maxsubspace        24
adc_davidson_maxiter            100
adc_davidson_conv		6
solvent_method    pcm
n_frozen_core   fc
$end

$pcm
theory iefpcm
eqsolv  30
eqstate 1
vdwscale 1.3
$end

$solvent
dielectric      2.38
dielectric_infi 2.25
$end

$molecule
read
$end

--------------------------------------------------------------

 Q-Chem 5.1, Q-Chem, Inc., Pleasanton, CA (2018)
 Q-Chem 5.1.1 for Intel X86 EM64T Linux

User input:
--------------------------------------------------------------

$rem
threads        26
method sosadc(2)
adc_c_t 1202
basis vDZ*
aux_basis riMP2-VDZ
mem_total     480000
mem_static    2000
ee_singlets   2
adc_davidson_maxsubspace        24
adc_davidson_maxiter            100
solvent_method  pcm
n_frozen_core   fc
$end

$pcm
theory iefpcm
eqsolv  1
eqstate 1
vdwscale 1.3
$end

$solvent
dielectric      2.38
dielectric_infi 2.25
$end

$molecule
read
$end

--------------------------------------------------------------

             Standard Nuclear Orientation (Angstroms)
    I     Atom           X                Y                Z
 ----------------------------------------------------------------
    1      N       0.0000000000     0.0000000000     0.0000000000
    2      C       0.0000000000     0.0000000000     1.3777940000
    3      C       1.1582939163     0.0000000000    -0.7474551064
    4      C       1.2028907607    -0.1808698506     2.0839154358
    5      C       1.1311082926    -0.2263101379     3.4689172746
    6      H       2.0297665848    -0.3904260099     4.0471580676
    7      C      -0.0680179056    -0.0704370924     4.1446174175
    8      H      -0.0832545019    -0.1114165094     5.2252203347
    9      C      -1.2456466760     0.1511436374     3.4350913649
   10      H      -2.1812002989     0.2993537234     3.9557833668
   11      C      -1.2179473285     0.1878832393     2.0634578745
   12      H      -2.1302974962     0.3753933491     1.5177581630
   13      C       2.4063009813    -0.1218839390    -0.1029935401
   14      C       3.5425605545    -0.0911840833    -0.8968894792
   15      H       4.5167718082    -0.1968960956    -0.4406154582
   16      C       3.4698903827     0.0581619532    -2.2728517643
   17      H       4.3791682144     0.0853933400    -2.8576852199
   18      C       2.2304576972     0.1573521630    -2.8992593456
   19      H       2.1608009436     0.2664628106    -3.9721612748
   20      C       1.0811767388     0.1152473144    -2.1508230605
   21      H       0.1273000258     0.1870696149    -2.6508838727
   22      C      -1.2681914881    -0.0053643238    -0.6706748286
   23      C      -1.7136427770     1.1436216604    -1.2795566547
   24      H      -1.0923556311     2.0281151964    -1.2280930308
   25      C      -2.0193229773    -1.1691658861    -0.6945567089
   26      H      -1.6676601259    -2.0786184538    -0.2248870714
   27      C      -3.2458366306    -1.1114777875    -1.3179326275
   28      H      -3.8710398240    -1.9956903399    -1.3152828368
   29      C      -2.9196700397     1.1861691525    -1.9831037034
   30      C      -3.7265898720     0.0424870981    -1.9518732057
   31      C      -5.1274419578    -0.0188038698    -2.4860670870
   32      H      -5.6238973458    -0.8763047482    -2.0267856215
   33      H      -5.1286010726    -0.2065686262    -3.5633862255
   34      C       2.5209546297    -0.3825038082     1.3803469267
   35      C      -5.9144132476     1.2601170384    -2.1959847851
   36      H      -6.9791576699     1.0258668013    -2.1494001424
   37      H      -5.6442779226     1.6190347461    -1.1951485228
   38      C      -5.6824726533     2.2660758601    -3.2799847032
   39      C      -6.7544698169     2.6734072062    -4.0269232611
   40      H      -7.7476558070     2.3664553885    -3.7167884753
   41      C      -6.6416469136     3.4321409906    -5.2086701123
   42      C      -7.7869960057     3.8177580567    -5.9104819682
   43      N      -8.7514248325     4.1250324118    -6.4839239889
   44      C      -5.3039364493     3.7303569674    -5.6607423891
   45      C      -4.2196414124     3.3351459193    -4.8716088146
   46      H      -3.2385569060     3.6235124079    -5.2244650356
   47      C      -4.3453363197     2.6288335343    -3.6908521181
   48      C      -5.0614095426     4.4028809926    -6.8696250211
   49      N      -4.8524325437     4.9584034657    -7.8670154732
   50      C      -3.1273365006     2.4945328213    -2.7791581715
   51      C      -1.8310459094     2.6965044323    -3.5621005633
   52      C      -1.3145213234     1.8758687132    -4.5466192693
   53      H      -1.8586639648     0.9974429780    -4.8731959985
   54      C      -0.1009211714     2.2169134639    -5.1310406823
   55      H       0.3076024482     1.5992912850    -5.9208162890
   56      C       0.5821441311     3.3590945761    -4.7228604415
   57      H       1.5232128023     3.6156309100    -5.1916732903
   58      C       0.0626564190     4.1791910094    -3.7313605942
   59      H       0.5971354779     5.0692026540    -3.4235464582
   60      C      -1.1527199417     3.8408700617    -3.1520879615
   61      C      -1.9277228265     4.4793616083    -2.0925481525
   62      C      -1.6959798595     5.6455738462    -1.3802097907
   63      H      -0.8221629153     6.2535794989    -1.5794012474
   64      C      -2.6123090401     6.0306201190    -0.4111601114
   65      H      -2.4522976032     6.9426573212     0.1487283737
   66      C      -3.7416135090     5.2578536745    -0.1627594096
   67      H      -4.4532640669     5.5748717416     0.5885899714
   68      C      -3.9731917499     4.0886371584    -0.8768287423
   69      H      -4.8646502896     3.5060794574    -0.6855111382
   70      C      -3.0611772686     3.7026695748    -1.8412071552
   71      C       3.5801589634     0.5458609434     1.9977621344
   72      H       4.5552925066     0.3942725873     1.5388836804
   73      H       3.7068626968     0.3502277663     3.0610536285
   74      H       3.3032899829     1.5921185625     1.8748282763
   75      C       2.9386151376    -1.8588311289     1.5692435426
   76      H       3.8987998631    -2.0488715501     1.0901066359
   77      H       2.2029403078    -2.5374556571     1.1373270426
   78      H       3.0362140356    -2.0954933501     2.6288603689
 ----------------------------------------------------------------
