 Q-Chem 5.1, Q-Chem, Inc., Pleasanton, CA (2018)
 Q-Chem 5.1.1 for Intel X86 EM64T Linux

User input:
--------------------------------------------------------------
$rem
threads        26
method sosadc(2)
adc_c_t 1202
basis  vdz
aux_basis rimp2-VDZ
mem_total     480000
mem_static    2000
ee_triplets   2
adc_davidson_maxsubspace        24
adc_davidson_maxiter            150
adc_davidson_conv		4
solvent_method    pcm
n_frozen_core 	fc
$end

$solvent
dielectric	2.38
dielectric_infi	2.25
$end

$pcm
vdwscale 1.3
theory iefpcm
$end

$molecule
read utctopt_tol.mol
$end

--------------------------------------------------------------

   17   -1845.4341115129      7.23E-09 Convergence criterion met
 Total energy in the final basis set = -1845.43411151
  Excited state 1 (triplet, A)                                     [converged]
  Term symbol:  1 (3) A                                     R^2 =  8.46983e-05
  Excited state 2 (triplet, A)                                     [converged]
  Term symbol:  2 (3) A                                     R^2 =  4.22935e-05
 Total job time:  11219.33s(wall), 118769.99s(cpu)
        *  Thank you very much for using Q-Chem.  Have a nice day.  *
 Q-Chem 5.1, Q-Chem, Inc., Pleasanton, CA (2018)
 Q-Chem 5.1.1 for Intel X86 EM64T Linux

User input:
--------------------------------------------------------------

$rem
threads        26
method sosadc(2)
adc_c_t 1202
basis  vdz
aux_basis rimp2-VDZ
mem_total     480000
mem_static    2000
ee_triplets   1
adc_davidson_maxsubspace        24
adc_davidson_maxiter            100
adc_davidson_conv		6
solvent_method    pcm
n_frozen_core   fc
$end

$pcm
theory iefpcm
eqsolv  30
eqstate 1
vdwscale 1.3
$end

$solvent
dielectric      2.38
dielectric_infi 2.25
$end

$molecule
read
$end

--------------------------------------------------------------

   17   -1845.4339853693      7.82E-09 Convergence criterion met
 Total energy in the final basis set = -1845.43398537
  Excited state 1 (EqS-reference, triplet, A)                      [converged]
  Term symbol:  1 (3) A                                     R^2 =  5.41970e-07
   17   -1845.4339710488      7.85E-09 Convergence criterion met
  Excited state 1 (EqS-reference, triplet, A)                      [converged]
  Term symbol:  1 (3) A                                     R^2 =  5.39288e-07
   17   -1845.4339696969      7.86E-09 Convergence criterion met
  Excited state 1 (EqS-reference, triplet, A)                      [converged]
  Term symbol:  1 (3) A                                     R^2 =  5.39112e-07

                    Orbital Energies (a.u.)
 --------------------------------------------------------------

 Alpha MOs
 -- Occupied --
-15.616 -15.612 -15.591 -11.327 -11.324 -11.317 -11.314 -11.301
-11.298 -11.293 -11.293 -11.293 -11.286 -11.286 -11.284 -11.273
-11.266 -11.264 -11.260 -11.260 -11.259 -11.257 -11.256 -11.254
-11.254 -11.254 -11.253 -11.252 -11.251 -11.251 -11.250 -11.250
-11.250 -11.249 -11.247 -11.240 -11.240 -11.238 -11.238 -11.237
-11.236 -11.231 -11.229 -11.228 -11.226 -11.217 -11.217  -1.300
 -1.262  -1.253  -1.232  -1.202  -1.181  -1.159  -1.155  -1.152
 -1.121  -1.114  -1.097  -1.077  -1.065  -1.058  -1.029  -1.025
 -1.023  -1.012  -1.012  -0.990  -0.989  -0.969  -0.953  -0.930
 -0.930  -0.892  -0.876  -0.872  -0.859  -0.858  -0.846  -0.825
 -0.816  -0.812  -0.810  -0.805  -0.799  -0.776  -0.749  -0.743
 -0.737  -0.732  -0.719  -0.705  -0.695  -0.687  -0.678  -0.678
 -0.651  -0.651  -0.647  -0.646  -0.644  -0.640  -0.636  -0.632
 -0.623  -0.619  -0.616  -0.612  -0.609  -0.605  -0.600  -0.597
 -0.593  -0.592  -0.591  -0.590  -0.577  -0.576  -0.570  -0.560
 -0.557  -0.551  -0.549  -0.542  -0.537  -0.531  -0.529  -0.526
 -0.526  -0.523  -0.521  -0.515  -0.511  -0.508  -0.504  -0.501
 -0.498  -0.496  -0.490  -0.489  -0.487  -0.485  -0.474  -0.466
 -0.456  -0.452  -0.401  -0.384  -0.373  -0.358  -0.350  -0.346
 -0.344  -0.338  -0.335  -0.333  -0.304  -0.262

          Ground-State Mulliken Net Atomic Charges

     Atom                 Charge (a.u.)
  ----------------------------------------
      1 N                    -0.940397
      2 C                     0.328205
      3 C                     0.347141
      4 C                    -0.008812
      5 C                    -0.162160
      6 H                     0.124756
      7 C                    -0.122917
      8 H                     0.110688
      9 C                    -0.073996
     10 H                     0.116586
     11 C                    -0.165470
     12 H                     0.145200
     13 C                    -0.011612
     14 C                    -0.163109
     15 H                     0.123003
     16 C                    -0.122030
     17 H                     0.108890
     18 C                    -0.076099
     19 H                     0.117658
     20 C                    -0.205856
     21 H                     0.181500
     22 C                     0.193717
     23 C                    -0.110802
     24 H                     0.169216
     25 C                    -0.025775
     26 H                     0.129692
     27 C                    -0.160970
     28 H                     0.117525
     29 C                     0.093486
     30 C                    -0.117013
     31 C                    -0.124589
     32 H                     0.139539
     33 H                     0.154501
     34 C                    -0.363839
     35 C                    -0.168486
     36 H                     0.140893
     37 H                     0.172188
     38 C                    -0.060036
     39 C                    -0.118424
     40 H                     0.148840
     41 C                    -0.001625
     42 C                    -0.232304
     43 N                     0.104728
     44 C                    -0.017656
     45 C                    -0.102295
     46 H                     0.199022
     47 C                     0.100529
     48 C                    -0.232716
     49 N                     0.104462
     50 C                    -0.383828
     51 C                    -0.082213
     52 C                    -0.051532
     53 H                     0.123837
     54 C                    -0.123215
     55 H                     0.130337
     56 C                    -0.008850
     57 C                    -0.083524
     58 H                     0.124479
     59 C                    -0.096931
     60 H                     0.128158
     61 C                    -0.031979
     62 C                    -0.085511
     63 H                     0.125386
     64 C                    -0.103404
     65 H                     0.128484
     66 C                    -0.116855
     67 H                     0.126030
     68 C                    -0.093083
     69 H                     0.131716
     70 C                     0.063981
     71 C                    -0.172715
     72 H                     0.119107
     73 H                     0.118594
     74 H                     0.125898
     75 C                    -0.145014
     76 H                     0.114649
     77 H                     0.120809
     78 H                     0.114215
  ----------------------------------------
  Sum of atomic charges =    -0.000000

                    Cartesian Multipole Moments
 -----------------------------------------------------------------
    Charge (ESU x 10^10)
                -0.0000
    Dipole Moment (Debye)
         X       2.9580      Y      -3.9084      Z       6.8112
       Tot       8.3915
    Quadrupole Moments (Debye-Ang)
        XX    -305.0408     XY      42.7476     YY    -299.9630
        XZ     -63.9048     YZ      51.7980     ZZ    -351.6882

 Total job time:  34859.24s(wall), 375417.48s(cpu)
        *  Thank you very much for using Q-Chem.  Have a nice day.  *
 Q-Chem 5.1, Q-Chem, Inc., Pleasanton, CA (2018)
 Q-Chem 5.1.1 for Intel X86 EM64T Linux

User input:
--------------------------------------------------------------

$rem
threads        26
method sosadc(2)
adc_c_t 1202
basis vDZ*
aux_basis riMP2-VDZ
mem_total     480000
mem_static    2000
ee_triplets   2
ee_singlets   2
adc_davidson_maxsubspace        24
adc_davidson_maxiter            100
solvent_method  pcm
n_frozen_core   fc
$end

$pcm
theory iefpcm
eqsolv  1
eqstate 1
vdwscale 1.3
$end

$solvent
dielectric      2.38
dielectric_infi 2.25
$end

$molecule
read
$end

--------------------------------------------------------------

             Standard Nuclear Orientation (Angstroms)
    I     Atom           X                Y                Z
 ----------------------------------------------------------------
    1      N       0.0000000000     0.0000000000     0.0000000000
    2      C       0.0000000000     0.0000000000     1.3778280000
    3      C       1.1583555731     0.0000000000    -0.7474241079
    4      C       1.2028895854    -0.1808422151     2.0839166862
    5      C       1.1311813382    -0.2263148130     3.4689253169
    6      H       2.0299452345    -0.3902136002     4.0470710215
    7      C      -0.0679099397    -0.0706092050     4.1446973304
    8      H      -0.0830943188    -0.1116254373     5.2253005867
    9      C      -1.2455754831     0.1508914494     3.4352112364
   10      H      -2.1811226003     0.2990127514     3.9559381142
   11      C      -1.2179272093     0.1877446639     2.0635677567
   12      H      -2.1303131138     0.3752931174     1.5179488899
   13      C       2.4063309853    -0.1219135452    -0.1029834137
   14      C       3.5425809725    -0.0915612268    -0.8969500934
   15      H       4.5167792540    -0.1973841889    -0.4406646177
   16      C       3.4699123965     0.0576718493    -2.2729045737
   17      H       4.3791742346     0.0846859392    -2.8577748210
   18      C       2.2304754392     0.1570858467    -2.8992637793
   19      H       2.1607972524     0.2661821122    -3.9721657793
   20      C       1.0812125667     0.1151875416    -2.1507734661
   21      H       0.1273133337     0.1871319281    -2.6507694494
   22      C      -1.2680394623    -0.0047545468    -0.6707144783
   23      C      -1.7128842918     1.1446368028    -1.2793716360
   24      H      -1.0910769127     2.0287473117    -1.2277150045
   25      C      -2.0199167545    -1.1680573367    -0.6948471107
   26      H      -1.6687875728    -2.0778444198    -0.2254238174
   27      C      -3.2464430820    -1.1094431977    -1.3180873935
   28      H      -3.8721858105    -1.9932731058    -1.3155461712
   29      C      -2.9189351339     1.1881057843    -1.9827901535
   30      C      -3.7266031362     0.0449327130    -1.9517719415
   31      C      -5.1275846945    -0.0156756369    -2.4857771661
   32      H      -5.6245147073    -0.8725651879    -2.0258803168
   33      H      -5.1290796717    -0.2040714966    -3.5629654025
   34      C       2.5210780432    -0.3819763053     1.3804706673
   35      C      -5.9137310574     1.2638643196    -2.1962201166
   36      H      -6.9786482289     1.0303370787    -2.1499788955
   37      H      -5.6436607026     1.6226690599    -1.1953466411
   38      C      -5.6807623229     2.2694407801    -3.2803294626
   39      C      -6.7522208420     2.6767814537    -4.0280024542
   40      H      -7.7456615085     2.3703846253    -3.7181661850
   41      C      -6.6385367727     3.4348211073    -5.2101467411
   42      C      -7.7833495910     3.8203890288    -5.9127864206
   43      N      -8.7474053922     4.1276301124    -6.4868893597
   44      C      -5.3004345374     3.7321468543    -5.6617830134
   45      C      -4.2167224015     3.3368832129    -4.8719905012
   46      H      -3.2353554859     3.6246185852    -5.2245427485
   47      C      -4.3432223133     2.6314801039    -3.6907271711
   48      C      -5.0571097747     4.4040218856    -6.8708638491
   49      N      -4.8476008913     4.9590052285    -7.8684393456
   50      C      -3.1256941143     2.4969276215    -2.7785845763
   51      C      -1.8292083612     2.6984299301    -3.5613169103
   52      C      -1.3127215556     1.8775403012    -4.5456647991
   53      H      -1.8569967755     0.9991660791    -4.8721724207
   54      C      -0.0989766535     2.2182263961    -5.1299757649
   55      H       0.3095140971     1.6003974667    -5.9196052780
   56      C      -1.1506416334     3.8426510735    -3.1513542337
   57      C       0.0648731610     4.1806362463    -3.7305348005
   58      H       0.5995235698     5.0705546399    -3.4227451112
   59      C       0.5842974726     3.3603133399    -4.7218763048
   60      H       1.5254712893     3.6165815118    -5.1906201194
   61      C      -1.9255461792     4.4813831889    -2.0918847429
   62      C      -1.6934641676     5.6475924505    -1.3796616276
   63      H      -0.8195028774     6.2553478290    -1.5789781076
   64      C      -2.6096457574     6.0329774310    -0.4106084736
   65      H      -2.4493806480     6.9450156573     0.1492019176
   66      C      -3.7391178407     5.2605086706    -0.1621167477
   67      H      -4.4506654819     5.5777278408     0.5892466669
   68      C      -3.9710347202     4.0913101031    -0.8761133452
   69      H      -4.8626367405     3.5090473312    -0.6846344607
   70      C      -3.0592011150     3.7049777224    -1.8405124261
   71      C       3.5793710882     0.5476656118     1.9976538419
   72      H       4.5546795967     0.3969258822     1.5388487058
   73      H       3.7061374966     0.3524751841     3.0610397050
   74      H       3.3014814246     1.5936139033     1.8743735327
   75      C       2.9399267187    -1.8577796613     1.5700928843
   76      H       3.9004035633    -2.0472720822     1.0913336762
   77      H       2.2049257494    -2.5371581261     1.1382169009
   78      H       3.0374370205    -2.0940010667     2.6298121104
 ----------------------------------------------------------------

   17   -1846.1399753230      5.70E-09 Convergence criterion met
 Total energy in the final basis set = -1846.13997532
