 Q-Chem 5.1, Q-Chem, Inc., Pleasanton, CA (2018)
 Q-Chem 5.1.1 for Intel X86 EM64T Linux

User input:
--------------------------------------------------------------
$rem
threads        26
method sosadc(2)
adc_c_t 1202
basis  vdz
aux_basis rimp2-VDZ
mem_total     480000
mem_static    2000
ee_triplets   2
adc_davidson_maxsubspace        24
adc_davidson_maxiter            150
adc_davidson_conv		4
solvent_method    pcm
n_frozen_core 	fc
$end

$solvent
dielectric	2.38
dielectric_infi	2.25
$end

$pcm
vdwscale 1.3
$end

$molecule
read utctopt_tol.mol
$end

--------------------------------------------------------------

   17   -1845.4369233836      7.10E-09 Convergence criterion met
 Total energy in the final basis set = -1845.43692338
  Excited state 1 (triplet, A)                                     [converged]
  Term symbol:  1 (3) A                                     R^2 =  7.74349e-05
  Excited state 2 (triplet, A)                                     [converged]
  Term symbol:  2 (3) A                                     R^2 =  3.64135e-05

                    Orbital Energies (a.u.)
 --------------------------------------------------------------

 Alpha MOs
 -- Occupied --
-15.617 -15.613 -15.594 -11.327 -11.324 -11.318 -11.315 -11.301
-11.299 -11.295 -11.295 -11.293 -11.288 -11.285 -11.284 -11.274
-11.266 -11.265 -11.262 -11.261 -11.260 -11.258 -11.255 -11.255
-11.255 -11.254 -11.254 -11.253 -11.252 -11.252 -11.251 -11.251
-11.250 -11.249 -11.249 -11.243 -11.242 -11.240 -11.239 -11.238
-11.238 -11.233 -11.231 -11.229 -11.228 -11.218 -11.218  -1.302
 -1.263  -1.254  -1.233  -1.202  -1.182  -1.160  -1.157  -1.154
 -1.122  -1.114  -1.099  -1.078  -1.065  -1.059  -1.031  -1.026
 -1.025  -1.014  -1.012  -0.991  -0.991  -0.970  -0.954  -0.931
 -0.931  -0.892  -0.877  -0.873  -0.860  -0.859  -0.848  -0.826
 -0.817  -0.813  -0.811  -0.806  -0.800  -0.777  -0.751  -0.745
 -0.738  -0.733  -0.720  -0.706  -0.696  -0.688  -0.679  -0.679
 -0.653  -0.652  -0.648  -0.646  -0.645  -0.640  -0.637  -0.633
 -0.624  -0.620  -0.618  -0.613  -0.610  -0.606  -0.601  -0.598
 -0.595  -0.593  -0.591  -0.591  -0.579  -0.578  -0.571  -0.561
 -0.557  -0.552  -0.550  -0.543  -0.538  -0.532  -0.530  -0.527
 -0.527  -0.524  -0.522  -0.516  -0.512  -0.509  -0.505  -0.503
 -0.498  -0.497  -0.491  -0.490  -0.488  -0.485  -0.475  -0.468
 -0.458  -0.454  -0.402  -0.385  -0.373  -0.359  -0.351  -0.348
 -0.346  -0.340  -0.338  -0.335  -0.306  -0.265

          Ground-State Mulliken Net Atomic Charges

     Atom                 Charge (a.u.)
  ----------------------------------------
      1 N                    -0.939873
      2 C                     0.327316
      3 C                     0.346331
      4 C                    -0.011837
      5 C                    -0.164870
      6 H                     0.129706
      7 C                    -0.126801
      8 H                     0.114260
      9 C                    -0.076396
     10 H                     0.120620
     11 C                    -0.169830
     12 H                     0.146982
     13 C                    -0.014889
     14 C                    -0.165697
     15 H                     0.128055
     16 C                    -0.125903
     17 H                     0.112722
     18 C                    -0.080007
     19 H                     0.122613
     20 C                    -0.211351
     21 H                     0.183469
     22 C                     0.195948
     23 C                    -0.114086
     24 H                     0.166896
     25 C                    -0.029342
     26 H                     0.130849
     27 C                    -0.162982
     28 H                     0.120523
     29 C                     0.094429
     30 C                    -0.116665
     31 C                    -0.125012
     32 H                     0.141126
     33 H                     0.155398
     34 C                    -0.360895
     35 C                    -0.168804
     36 H                     0.144006
     37 H                     0.173512
     38 C                    -0.061732
     39 C                    -0.115017
     40 H                     0.153851
     41 C                    -0.003665
     42 C                    -0.226060
     43 N                     0.097044
     44 C                    -0.019148
     45 C                    -0.101890
     46 H                     0.199878
     47 C                     0.099863
     48 C                    -0.226892
     49 N                     0.096046
     50 C                    -0.380868
     51 C                    -0.082406
     52 C                    -0.050976
     53 H                     0.127038
     54 C                    -0.123907
     55 H                     0.133280
     56 C                    -0.009037
     57 C                    -0.088918
     58 H                     0.127798
     59 C                    -0.102059
     60 H                     0.130626
     61 C                    -0.033108
     62 C                    -0.089837
     63 H                     0.129080
     64 C                    -0.107187
     65 H                     0.131182
     66 C                    -0.120722
     67 H                     0.129183
     68 C                    -0.097433
     69 H                     0.137180
     70 C                     0.061761
     71 C                    -0.175409
     72 H                     0.122153
     73 H                     0.121647
     74 H                     0.123666
     75 C                    -0.148221
     76 H                     0.116909
     77 H                     0.120057
     78 H                     0.116733
  ----------------------------------------
  Sum of atomic charges =    -0.000000

                    Cartesian Multipole Moments
 -----------------------------------------------------------------
    Charge (ESU x 10^10)
                -0.0000
    Dipole Moment (Debye)
         X       2.8673      Y      -4.1406      Z       6.9069
       Tot       8.5482
    Quadrupole Moments (Debye-Ang)
        XX    -303.1172     XY      43.2560     YY    -300.9349
        XZ     -64.2235     YZ      52.8415     ZZ    -352.0171

 Total job time:  10859.71s(wall), 114485.31s(cpu)
        *  Thank you very much for using Q-Chem.  Have a nice day.  *
 Q-Chem 5.1, Q-Chem, Inc., Pleasanton, CA (2018)
 Q-Chem 5.1.1 for Intel X86 EM64T Linux

User input:
--------------------------------------------------------------

$rem
threads        26
method sosadc(2)
adc_c_t 1202
basis  vdz
aux_basis rimp2-VDZ
mem_total     480000
mem_static    2000
ee_triplets   1
adc_davidson_maxsubspace        24
adc_davidson_maxiter            100
adc_davidson_conv		6
solvent_method    pcm
n_frozen_core   fc
$end

$pcm
theory iefpcm
eqsolv  30
eqstate 1
vdwscale 1.3
$end

$solvent
dielectric      2.38
dielectric_infi 2.25
$end

$molecule
read
$end

--------------------------------------------------------------

 Q-Chem 5.1, Q-Chem, Inc., Pleasanton, CA (2018)
 Q-Chem 5.1.1 for Intel X86 EM64T Linux

User input:
--------------------------------------------------------------

$rem
threads        26
method sosadc(2)
adc_c_t 1202
basis vDZ*
aux_basis riMP2-VDZ
mem_total     480000
mem_static    2000
ee_triplets   2
ee_singlets   2
adc_davidson_maxsubspace        24
adc_davidson_maxiter            100
solvent_method  pcm
n_frozen_core   fc
$end

$pcm
theory iefpcm
eqsolv  1
eqstate 1
vdwscale 1.3
$end

$solvent
dielectric      2.38
dielectric_infi 2.25
$end

$molecule
read
$end

--------------------------------------------------------------

             Standard Nuclear Orientation (Angstroms)
    I     Atom           X                Y                Z
 ----------------------------------------------------------------
    1      N       0.0000000000     0.0000000000     0.0000000000
    2      C       0.0000000000     0.0000000000     1.3778280000
    3      C       1.1583555731     0.0000000000    -0.7474241079
    4      C       1.2028895854    -0.1808422151     2.0839166862
    5      C       1.1311813382    -0.2263148130     3.4689253169
    6      H       2.0299452345    -0.3902136002     4.0470710215
    7      C      -0.0679099397    -0.0706092050     4.1446973304
    8      H      -0.0830943188    -0.1116254373     5.2253005867
    9      C      -1.2455754831     0.1508914494     3.4352112364
   10      H      -2.1811226003     0.2990127514     3.9559381142
   11      C      -1.2179272093     0.1877446639     2.0635677567
   12      H      -2.1303131138     0.3752931174     1.5179488899
   13      C       2.4063309853    -0.1219135452    -0.1029834137
   14      C       3.5425809725    -0.0915612268    -0.8969500934
   15      H       4.5167792540    -0.1973841889    -0.4406646177
   16      C       3.4699123965     0.0576718493    -2.2729045737
   17      H       4.3791742346     0.0846859392    -2.8577748210
   18      C       2.2304754392     0.1570858467    -2.8992637793
   19      H       2.1607972524     0.2661821122    -3.9721657793
   20      C       1.0812125667     0.1151875416    -2.1507734661
   21      H       0.1273133337     0.1871319281    -2.6507694494
   22      C      -1.2680394623    -0.0047545468    -0.6707144783
   23      C      -1.7128842918     1.1446368028    -1.2793716360
   24      H      -1.0910769127     2.0287473117    -1.2277150045
   25      C      -2.0199167545    -1.1680573367    -0.6948471107
   26      H      -1.6687875728    -2.0778444198    -0.2254238174
   27      C      -3.2464430820    -1.1094431977    -1.3180873935
   28      H      -3.8721858105    -1.9932731058    -1.3155461712
   29      C      -2.9189351339     1.1881057843    -1.9827901535
   30      C      -3.7266031362     0.0449327130    -1.9517719415
   31      C      -5.1275846945    -0.0156756369    -2.4857771661
   32      H      -5.6245147073    -0.8725651879    -2.0258803168
   33      H      -5.1290796717    -0.2040714966    -3.5629654025
   34      C       2.5210780432    -0.3819763053     1.3804706673
   35      C      -5.9137310574     1.2638643196    -2.1962201166
   36      H      -6.9786482289     1.0303370787    -2.1499788955
   37      H      -5.6436607026     1.6226690599    -1.1953466411
   38      C      -5.6807623229     2.2694407801    -3.2803294626
   39      C      -6.7522208420     2.6767814537    -4.0280024542
   40      H      -7.7456615085     2.3703846253    -3.7181661850
   41      C      -6.6385367727     3.4348211073    -5.2101467411
   42      C      -7.7833495910     3.8203890288    -5.9127864206
   43      N      -8.7474053922     4.1276301124    -6.4868893597
   44      C      -5.3004345374     3.7321468543    -5.6617830134
   45      C      -4.2167224015     3.3368832129    -4.8719905012
   46      H      -3.2353554859     3.6246185852    -5.2245427485
   47      C      -4.3432223133     2.6314801039    -3.6907271711
   48      C      -5.0571097747     4.4040218856    -6.8708638491
   49      N      -4.8476008913     4.9590052285    -7.8684393456
   50      C      -3.1256941143     2.4969276215    -2.7785845763
   51      C      -1.8292083612     2.6984299301    -3.5613169103
   52      C      -1.3127215556     1.8775403012    -4.5456647991
   53      H      -1.8569967755     0.9991660791    -4.8721724207
   54      C      -0.0989766535     2.2182263961    -5.1299757649
   55      H       0.3095140971     1.6003974667    -5.9196052780
   56      C      -1.1506416334     3.8426510735    -3.1513542337
   57      C       0.0648731610     4.1806362463    -3.7305348005
   58      H       0.5995235698     5.0705546399    -3.4227451112
   59      C       0.5842974726     3.3603133399    -4.7218763048
   60      H       1.5254712893     3.6165815118    -5.1906201194
   61      C      -1.9255461792     4.4813831889    -2.0918847429
   62      C      -1.6934641676     5.6475924505    -1.3796616276
   63      H      -0.8195028774     6.2553478290    -1.5789781076
   64      C      -2.6096457574     6.0329774310    -0.4106084736
   65      H      -2.4493806480     6.9450156573     0.1492019176
   66      C      -3.7391178407     5.2605086706    -0.1621167477
   67      H      -4.4506654819     5.5777278408     0.5892466669
   68      C      -3.9710347202     4.0913101031    -0.8761133452
   69      H      -4.8626367405     3.5090473312    -0.6846344607
   70      C      -3.0592011150     3.7049777224    -1.8405124261
   71      C       3.5793710882     0.5476656118     1.9976538419
   72      H       4.5546795967     0.3969258822     1.5388487058
   73      H       3.7061374966     0.3524751841     3.0610397050
   74      H       3.3014814246     1.5936139033     1.8743735327
   75      C       2.9399267187    -1.8577796613     1.5700928843
   76      H       3.9004035633    -2.0472720822     1.0913336762
   77      H       2.2049257494    -2.5371581261     1.1382169009
   78      H       3.0374370205    -2.0940010667     2.6298121104
 ----------------------------------------------------------------
