 Q-Chem 5.1, Q-Chem, Inc., Pleasanton, CA (2018)
 Q-Chem 5.1.1 for Intel X86 EM64T Linux

User input:
--------------------------------------------------------------
$rem
threads        26
method sosadc(2)
adc_c_t 1202
basis  vdz
aux_basis rimp2-VDZ
mem_total     480000
mem_static    2000
ee_triplets   2
adc_davidson_maxsubspace        24
adc_davidson_maxiter            150
adc_davidson_conv		4
solvent_method    pcm
n_frozen_core 	fc
$end

$solvent
dielectric	2.38
dielectric_infi	2.25
$end

$pcm
vdwscale 1.3
$end

$molecule
read ut1opt_tol.mol
$end

--------------------------------------------------------------

   17   -1845.4236450576      8.11E-09 Convergence criterion met
 Total energy in the final basis set = -1845.42364506
  Excited state 1 (triplet, A)                                     [converged]
  Term symbol:  1 (3) A                                     R^2 =  3.90810e-06
  Excited state 2 (triplet, A)                                     [converged]
  Term symbol:  2 (3) A                                     R^2 =  7.01953e-05

                    Orbital Energies (a.u.)
 --------------------------------------------------------------

 Alpha MOs
 -- Occupied --
-15.613 -15.610 -15.593 -11.327 -11.324 -11.315 -11.312 -11.305
-11.298 -11.297 -11.292 -11.291 -11.289 -11.284 -11.283 -11.272
-11.266 -11.265 -11.262 -11.261 -11.261 -11.259 -11.256 -11.256
-11.256 -11.256 -11.254 -11.254 -11.253 -11.252 -11.251 -11.251
-11.251 -11.250 -11.250 -11.244 -11.244 -11.241 -11.240 -11.240
-11.239 -11.236 -11.234 -11.232 -11.231 -11.220 -11.219  -1.298
 -1.261  -1.252  -1.234  -1.196  -1.183  -1.161  -1.158  -1.154
 -1.120  -1.113  -1.100  -1.079  -1.065  -1.055  -1.030  -1.027
 -1.025  -1.013  -1.012  -0.994  -0.992  -0.975  -0.954  -0.934
 -0.931  -0.890  -0.877  -0.870  -0.860  -0.853  -0.846  -0.827
 -0.817  -0.816  -0.811  -0.807  -0.797  -0.770  -0.753  -0.740
 -0.739  -0.733  -0.716  -0.706  -0.697  -0.685  -0.681  -0.680
 -0.655  -0.655  -0.652  -0.649  -0.642  -0.642  -0.635  -0.634
 -0.625  -0.621  -0.618  -0.614  -0.611  -0.609  -0.608  -0.603
 -0.601  -0.593  -0.589  -0.584  -0.578  -0.575  -0.570  -0.560
 -0.556  -0.546  -0.544  -0.542  -0.538  -0.531  -0.530  -0.526
 -0.526  -0.521  -0.519  -0.516  -0.510  -0.508  -0.507  -0.503
 -0.502  -0.498  -0.490  -0.488  -0.487  -0.482  -0.471  -0.468
 -0.465  -0.447  -0.404  -0.383  -0.374  -0.358  -0.353  -0.347
 -0.342  -0.337  -0.333  -0.331  -0.307  -0.279

          Ground-State Mulliken Net Atomic Charges

     Atom                 Charge (a.u.)
  ----------------------------------------
      1 N                    -0.925990
      2 C                     0.331448
      3 C                    -0.171436
      4 H                     0.138216
      5 C                    -0.082376
      6 H                     0.121488
      7 C                    -0.111341
      8 H                     0.118208
      9 C                    -0.163240
     10 H                     0.125132
     11 C                     0.002462
     12 C                     0.363907
     13 C                    -0.227009
     14 H                     0.188647
     15 C                    -0.091411
     16 H                     0.122148
     17 C                    -0.109505
     18 H                     0.117481
     19 C                    -0.163300
     20 H                     0.124839
     21 C                    -0.007843
     22 C                     0.217304
     23 C                    -0.119471
     24 H                     0.158196
     25 C                    -0.062007
     26 H                     0.134830
     27 C                    -0.152050
     28 H                     0.121153
     29 C                     0.082651
     30 C                    -0.113539
     31 C                    -0.128392
     32 H                     0.138316
     33 H                     0.160828
     34 C                    -0.450181
     35 C                    -0.158502
     36 H                     0.131089
     37 H                     0.130738
     38 H                     0.125077
     39 C                    -0.403764
     40 C                     0.075700
     41 C                    -0.087155
     42 H                     0.201494
     43 C                     0.009544
     44 C                    -0.242628
     45 N                     0.079961
     46 C                     0.015057
     47 C                    -0.111807
     48 H                     0.158090
     49 C                    -0.029393
     50 C                    -0.236343
     51 N                     0.082171
     52 C                    -0.182284
     53 H                     0.148117
     54 H                     0.176242
     55 C                    -0.078310
     56 C                    -0.053256
     57 H                     0.130916
     58 C                    -0.128777
     59 H                     0.132647
     60 C                    -0.105204
     61 H                     0.131393
     62 C                    -0.088207
     63 H                     0.128865
     64 C                    -0.002298
     65 C                    -0.014295
     66 C                    -0.092990
     67 H                     0.128285
     68 C                    -0.106139
     69 H                     0.130726
     70 C                    -0.121879
     71 H                     0.129147
     72 C                    -0.082025
     73 H                     0.135535
     74 C                     0.039404
     75 C                    -0.160504
     76 H                     0.144678
     77 H                     0.116692
     78 H                     0.116036
  ----------------------------------------
  Sum of atomic charges =    -0.000000

                    Cartesian Multipole Moments
 -----------------------------------------------------------------
    Charge (ESU x 10^10)
                -0.0000
    Dipole Moment (Debye)
         X      -5.5422      Y       4.4142      Z       5.9067
       Tot       9.2245
    Quadrupole Moments (Debye-Ang)
        XX    -354.1721     XY      48.0961     YY    -278.7378
        XZ      75.4893     YZ     -31.9670     ZZ    -330.4395

 Total job time:  7938.63s(wall), 87713.24s(cpu)
        *  Thank you very much for using Q-Chem.  Have a nice day.  *
 Q-Chem 5.1, Q-Chem, Inc., Pleasanton, CA (2018)
 Q-Chem 5.1.1 for Intel X86 EM64T Linux

User input:
--------------------------------------------------------------

$rem
threads        26
method sosadc(2)
adc_c_t 1202
basis  vdz
aux_basis rimp2-VDZ
mem_total     480000
mem_static    2000
ee_triplets   1
adc_davidson_maxsubspace        24
adc_davidson_maxiter            100
adc_davidson_conv		6
solvent_method    pcm
n_frozen_core   fc
$end

$pcm
theory iefpcm
eqsolv  30
eqstate 1
vdwscale 1.3
$end

$solvent
dielectric      2.38
dielectric_infi 2.25
$end

$molecule
read
$end

--------------------------------------------------------------

 Q-Chem 5.1, Q-Chem, Inc., Pleasanton, CA (2018)
 Q-Chem 5.1.1 for Intel X86 EM64T Linux

User input:
--------------------------------------------------------------

$rem
threads        26
method sosadc(2)
adc_c_t 1202
basis vDZ*
aux_basis riMP2-VDZ
mem_total     480000
mem_static    2000
ee_triplets   2
ee_singlets   2
adc_davidson_maxsubspace        24
adc_davidson_maxiter            100
solvent_method  pcm
n_frozen_core   fc
$end

$pcm
theory iefpcm
eqsolv  1
eqstate 1
vdwscale 1.3
$end

$solvent
dielectric      2.38
dielectric_infi 2.25
$end

$molecule
read
$end

--------------------------------------------------------------

             Standard Nuclear Orientation (Angstroms)
    I     Atom           X                Y                Z
 ----------------------------------------------------------------
    1      N       0.0000000000     0.0000000000     0.0000000000
    2      C       0.0000000000     0.0000000000     1.3963950000
    3      C       1.1941266736     0.0000000000     2.1172208451
    4      H       2.1447815243     0.0177047019     1.6018638810
    5      C       1.1703080024    -0.0342724344     3.5012116744
    6      H       2.1046470794    -0.0334251455     4.0476701355
    7      C      -0.0370889350    -0.0871497633     4.1773941678
    8      H      -0.0615450724    -0.1259333305     5.2582811314
    9      C      -1.2215112238    -0.0726119447     3.4549695880
   10      H      -2.1580924764    -0.0899591038     3.9954729696
   11      C      -1.2278066875    -0.0053875249     2.0683684745
   12      C      -1.0792094983    -0.5709765256    -0.6841108658
   13      C      -0.9429558557    -1.1071930499    -1.9642569927
   14      H       0.0020380195    -1.0663525532    -2.4870775677
   15      C      -2.0200043126    -1.7196227350    -2.5819396393
   16      H      -1.8889555779    -2.1382776155    -3.5715234593
   17      C      -3.2391990828    -1.8131752247    -1.9327434440
   18      H      -4.0794195599    -2.3061265070    -2.4032565346
   19      C      -3.3798723890    -1.2464948524    -0.6743925159
   20      H      -4.3448555671    -1.2958993822    -0.1888923270
   21      C      -2.3267805792    -0.5976874002    -0.0444332262
   22      C       1.1890871126     0.3502708162    -0.6849280465
   23      C       2.0567620773    -0.6175282534    -1.1500404444
   24      H       1.8096837387    -1.6559940534    -0.9657793772
   25      C       1.4912630247     1.6891120487    -0.8895134944
   26      H       0.8215972506     2.4587992183    -0.5277499280
   27      C       2.6643368285     2.0186562863    -1.5361312607
   28      H       2.9204326859     3.0634673785    -1.6639119974
   29      C       3.2069919462    -0.2975201123    -1.8712355265
   30      C       3.5356316329     1.0483527184    -2.0367922371
   31      C       4.8302696114     1.5143082589    -2.6394018948
   32      H       4.9354187178     2.5842262564    -2.4557148539
   33      H       4.8376458822     1.4004462943    -3.7279814383
   34      C      -2.4824562218     0.1937434639     1.2424608839
   35      C      -3.7454082813    -0.1793116409     2.0112488255
   36      H      -4.6362978422     0.0030046476     1.4108243300
   37      H      -3.8523814187     0.4376600210     2.9033702519
   38      H      -3.7449059460    -1.2260315414     2.3175393956
   39      C       3.9249168368    -1.5066281273    -2.4789823534
   40      C       5.1808082818    -1.2932350080    -3.3054497629
   41      C       5.4096090363    -2.0418871403    -4.4439642988
   42      H       4.5966892472    -2.5691464602    -4.9223977953
   43      C       6.6829724862    -2.1943133025    -4.9785563026
   44      C       6.8827069797    -2.8913590427    -6.1738978778
   45      N       7.0584087932    -3.4697145377    -7.1631463818
   46      C       7.8592440336    -1.6335810100    -4.2369384944
   47      C       7.5996291727    -0.7211945799    -3.2162778612
   48      H       8.4249896887    -0.1571564338    -2.7985115070
   49      C       6.3214989092    -0.4554455215    -2.7936117366
   50      C       9.1616957910    -1.9519463995    -4.6210699654
   51      N      10.2460502367    -2.2110647871    -4.9428648910
   52      C       6.0284616844     0.7820602763    -2.0212034821
   53      H       6.9128411192     1.4203298691    -2.0216318971
   54      H       5.8048743539     0.5687084263    -0.9698469222
   55      C       2.8972846839    -2.3120179336    -3.2672786758
   56      C       2.1017337486    -1.8672867995    -4.3048858282
   57      H       2.1576593786    -0.8414753097    -4.6497139616
   58      C       1.2196895905    -2.7642270193    -4.8948960914
   59      H       0.5865386732    -2.4370915943    -5.7091611528
   60      C       1.1434115012    -4.0789384885    -4.4446582798
   61      H       0.4502585072    -4.7642605892    -4.9140657476
   62      C       1.9389348917    -4.5189510131    -3.3963838677
   63      H       1.8642626502    -5.5400453166    -3.0447436320
   64      C       2.8183362969    -3.6230714075    -2.8060248355
   65      C       3.7323756536    -3.7728818862    -1.6788958591
   66      C       4.0186290958    -4.8688535004    -0.8823207439
   67      H       3.5491790846    -5.8268206690    -1.0663385967
   68      C       4.9179268046    -4.7184476184     0.1652592326
   69      H       5.1525643649    -5.5661665707     0.7951485009
   70      C       5.5110884380    -3.4880659769     0.4212327806
   71      H       6.1980808531    -3.3848872029     1.2506216290
   72      C       5.2267702863    -2.3871771456    -0.3777427418
   73      H       5.6826375924    -1.4303446866    -0.1602060383
   74      C       4.3427076854    -2.5418281235    -1.4285124684
   75      C      -2.5737747191     1.6915915222     0.8777998019
   76      H      -1.6980873878     2.0323164567     0.3253842364
   77      H      -3.4531996555     1.8809336340     0.2596055298
   78      H      -2.6529678954     2.2957995010     1.7835013993
 ----------------------------------------------------------------
