 Q-Chem 5.1, Q-Chem, Inc., Pleasanton, CA (2018)
 Q-Chem 5.1.1 for Intel X86 EM64T Linux

User input:
--------------------------------------------------------------
$rem
threads        26
method sosadc(2)
adc_c_t 1202
basis  vdz
aux_basis rimp2-VDZ
mem_total     480000
mem_static    2000
ee_triplets   2
adc_davidson_maxsubspace        24
adc_davidson_maxiter            150
adc_davidson_conv		4
solvent_method    pcm
n_frozen_core 	fc
$end

$solvent
dielectric	2.38
dielectric_infi	2.25
$end

$pcm
vdwscale 1.3
theory iefpcm
$end

$molecule
read ut1opt_tol.mol
$end

--------------------------------------------------------------

   17   -1845.4208559556      7.93E-09 Convergence criterion met
 Total energy in the final basis set = -1845.42085596
  Excited state 1 (triplet, A)                                     [converged]
  Term symbol:  1 (3) A                                     R^2 =  4.36913e-06
  Excited state 2 (triplet, A)                                     [converged]
  Term symbol:  2 (3) A                                     R^2 =  7.32203e-05
 Total job time:  8063.85s(wall), 90719.47s(cpu)
        *  Thank you very much for using Q-Chem.  Have a nice day.  *
 Q-Chem 5.1, Q-Chem, Inc., Pleasanton, CA (2018)
 Q-Chem 5.1.1 for Intel X86 EM64T Linux

User input:
--------------------------------------------------------------

$rem
threads        26
method sosadc(2)
adc_c_t 1202
basis  vdz
aux_basis rimp2-VDZ
mem_total     480000
mem_static    2000
ee_triplets   1
adc_davidson_maxsubspace        24
adc_davidson_maxiter            100
adc_davidson_conv		6
solvent_method    pcm
n_frozen_core   fc
$end

$pcm
theory iefpcm
eqsolv  30
eqstate 1
vdwscale 1.3
$end

$solvent
dielectric      2.38
dielectric_infi 2.25
$end

$molecule
read
$end

--------------------------------------------------------------

   17   -1845.4207335607      8.48E-09 Convergence criterion met
 Total energy in the final basis set = -1845.42073356
  Excited state 1 (EqS-reference, triplet, A)                      [converged]
  Term symbol:  1 (3) A                                     R^2 =  6.35622e-07
   17   -1845.4207188940      8.35E-09 Convergence criterion met
  Excited state 1 (EqS-reference, triplet, A)                      [converged]
  Term symbol:  1 (3) A                                     R^2 =  7.49315e-07
   17   -1845.4207175049      8.36E-09 Convergence criterion met
  Excited state 1 (EqS-reference, triplet, A)                      [converged]
  Term symbol:  1 (3) A                                     R^2 =  7.58241e-07

                    Orbital Energies (a.u.)
 --------------------------------------------------------------

 Alpha MOs
 -- Occupied --
-15.611 -15.608 -15.591 -11.327 -11.324 -11.313 -11.310 -11.305
-11.297 -11.297 -11.290 -11.289 -11.287 -11.284 -11.283 -11.271
-11.266 -11.264 -11.262 -11.260 -11.260 -11.257 -11.257 -11.255
-11.255 -11.255 -11.253 -11.253 -11.252 -11.251 -11.251 -11.250
-11.250 -11.250 -11.249 -11.242 -11.242 -11.239 -11.238 -11.238
-11.237 -11.234 -11.232 -11.230 -11.229 -11.219 -11.217  -1.296
 -1.259  -1.251  -1.233  -1.195  -1.182  -1.160  -1.156  -1.152
 -1.119  -1.113  -1.099  -1.078  -1.064  -1.054  -1.028  -1.026
 -1.023  -1.012  -1.010  -0.992  -0.991  -0.974  -0.953  -0.933
 -0.930  -0.890  -0.876  -0.869  -0.860  -0.851  -0.844  -0.827
 -0.816  -0.815  -0.810  -0.806  -0.796  -0.770  -0.752  -0.739
 -0.738  -0.732  -0.716  -0.705  -0.696  -0.685  -0.680  -0.679
 -0.654  -0.653  -0.651  -0.648  -0.641  -0.640  -0.635  -0.634
 -0.624  -0.621  -0.617  -0.613  -0.611  -0.608  -0.606  -0.602
 -0.600  -0.593  -0.588  -0.583  -0.577  -0.574  -0.568  -0.560
 -0.555  -0.545  -0.543  -0.541  -0.537  -0.530  -0.529  -0.526
 -0.525  -0.520  -0.518  -0.515  -0.510  -0.507  -0.506  -0.502
 -0.501  -0.497  -0.488  -0.487  -0.486  -0.481  -0.470  -0.467
 -0.464  -0.445  -0.403  -0.383  -0.373  -0.357  -0.351  -0.346
 -0.340  -0.336  -0.330  -0.330  -0.306  -0.277

          Ground-State Mulliken Net Atomic Charges

     Atom                 Charge (a.u.)
  ----------------------------------------
      1 N                    -0.927096
      2 C                     0.331889
      3 C                    -0.166502
      4 H                     0.136036
      5 C                    -0.079770
      6 H                     0.117492
      7 C                    -0.107554
      8 H                     0.114577
      9 C                    -0.161405
     10 H                     0.120815
     11 C                     0.006462
     12 C                     0.364978
     13 C                    -0.222335
     14 H                     0.187434
     15 C                    -0.087918
     16 H                     0.117819
     17 C                    -0.105883
     18 H                     0.113627
     19 C                    -0.161472
     20 H                     0.120397
     21 C                    -0.003926
     22 C                     0.216458
     23 C                    -0.117748
     24 H                     0.160187
     25 C                    -0.057489
     26 H                     0.132584
     27 C                    -0.149653
     28 H                     0.118185
     29 C                     0.081718
     30 C                    -0.114259
     31 C                    -0.127766
     32 H                     0.136720
     33 H                     0.160081
     34 C                    -0.452808
     35 C                    -0.157261
     36 H                     0.128768
     37 H                     0.128265
     38 H                     0.125938
     39 C                    -0.406788
     40 C                     0.076711
     41 C                    -0.088749
     42 H                     0.199931
     43 C                     0.012440
     44 C                    -0.248689
     45 N                     0.088694
     46 C                     0.017802
     47 C                    -0.114391
     48 H                     0.152981
     49 C                    -0.028415
     50 C                    -0.242609
     51 N                     0.089958
     52 C                    -0.181821
     53 H                     0.145172
     54 H                     0.174517
     55 C                    -0.077728
     56 C                    -0.054271
     57 H                     0.128197
     58 C                    -0.127802
     59 H                     0.130034
     60 C                    -0.100939
     61 H                     0.128917
     62 C                    -0.083493
     63 H                     0.125645
     64 C                    -0.001921
     65 C                    -0.012691
     66 C                    -0.088527
     67 H                     0.124676
     68 C                    -0.102246
     69 H                     0.128132
     70 C                    -0.118010
     71 H                     0.125932
     72 C                    -0.078220
     73 H                     0.129932
     74 C                     0.041393
     75 C                    -0.157691
     76 H                     0.143709
     77 H                     0.115799
     78 H                     0.114847
  ----------------------------------------
  Sum of atomic charges =    -0.000000

                    Cartesian Multipole Moments
 -----------------------------------------------------------------
    Charge (ESU x 10^10)
                -0.0000
    Dipole Moment (Debye)
         X      -5.5094      Y       4.1342      Z       5.8176
       Tot       9.0160
    Quadrupole Moments (Debye-Ang)
        XX    -354.6668     XY      46.5177     YY    -278.2506
        XZ      74.5370     YZ     -31.1758     ZZ    -330.2499

 Total job time:  18596.42s(wall), 221845.65s(cpu)
        *  Thank you very much for using Q-Chem.  Have a nice day.  *
 Q-Chem 5.1, Q-Chem, Inc., Pleasanton, CA (2018)
 Q-Chem 5.1.1 for Intel X86 EM64T Linux

User input:
--------------------------------------------------------------

$rem
threads        26
method sosadc(2)
adc_c_t 1202
basis vDZ*
aux_basis riMP2-VDZ
mem_total     480000
mem_static    2000
ee_triplets   2
ee_singlets   2
adc_davidson_maxsubspace        24
adc_davidson_maxiter            100
solvent_method  pcm
n_frozen_core   fc
$end

$pcm
theory iefpcm
eqsolv  1
eqstate 1
vdwscale 1.3
$end

$solvent
dielectric      2.38
dielectric_infi 2.25
$end

$molecule
read
$end

--------------------------------------------------------------

             Standard Nuclear Orientation (Angstroms)
    I     Atom           X                Y                Z
 ----------------------------------------------------------------
    1      N       0.0000000000     0.0000000000     0.0000000000
    2      C       0.0000000000     0.0000000000     1.3963950000
    3      C       1.1941266736     0.0000000000     2.1172208451
    4      H       2.1447815243     0.0177047019     1.6018638810
    5      C       1.1703080024    -0.0342724344     3.5012116744
    6      H       2.1046470794    -0.0334251455     4.0476701355
    7      C      -0.0370889350    -0.0871497633     4.1773941678
    8      H      -0.0615450724    -0.1259333305     5.2582811314
    9      C      -1.2215112238    -0.0726119447     3.4549695880
   10      H      -2.1580924764    -0.0899591038     3.9954729696
   11      C      -1.2278066875    -0.0053875249     2.0683684745
   12      C      -1.0792094983    -0.5709765256    -0.6841108658
   13      C      -0.9429558557    -1.1071930499    -1.9642569927
   14      H       0.0020380195    -1.0663525532    -2.4870775677
   15      C      -2.0200043126    -1.7196227350    -2.5819396393
   16      H      -1.8889555779    -2.1382776155    -3.5715234593
   17      C      -3.2391990828    -1.8131752247    -1.9327434440
   18      H      -4.0794195599    -2.3061265070    -2.4032565346
   19      C      -3.3798723890    -1.2464948524    -0.6743925159
   20      H      -4.3448555671    -1.2958993822    -0.1888923270
   21      C      -2.3267805792    -0.5976874002    -0.0444332262
   22      C       1.1890871126     0.3502708162    -0.6849280465
   23      C       2.0567620773    -0.6175282534    -1.1500404444
   24      H       1.8096837387    -1.6559940534    -0.9657793772
   25      C       1.4912630247     1.6891120487    -0.8895134944
   26      H       0.8215972506     2.4587992183    -0.5277499280
   27      C       2.6643368285     2.0186562863    -1.5361312607
   28      H       2.9204326859     3.0634673785    -1.6639119974
   29      C       3.2069919462    -0.2975201123    -1.8712355265
   30      C       3.5356316329     1.0483527184    -2.0367922371
   31      C       4.8302696114     1.5143082589    -2.6394018948
   32      H       4.9354187178     2.5842262564    -2.4557148539
   33      H       4.8376458822     1.4004462943    -3.7279814383
   34      C      -2.4824562218     0.1937434639     1.2424608839
   35      C      -3.7454082813    -0.1793116409     2.0112488255
   36      H      -4.6362978422     0.0030046476     1.4108243300
   37      H      -3.8523814187     0.4376600210     2.9033702519
   38      H      -3.7449059460    -1.2260315414     2.3175393956
   39      C       3.9249168368    -1.5066281273    -2.4789823534
   40      C       5.1808082818    -1.2932350080    -3.3054497629
   41      C       5.4096090363    -2.0418871403    -4.4439642988
   42      H       4.5966892472    -2.5691464602    -4.9223977953
   43      C       6.6829724862    -2.1943133025    -4.9785563026
   44      C       6.8827069797    -2.8913590427    -6.1738978778
   45      N       7.0584087932    -3.4697145377    -7.1631463818
   46      C       7.8592440336    -1.6335810100    -4.2369384944
   47      C       7.5996291727    -0.7211945799    -3.2162778612
   48      H       8.4249896887    -0.1571564338    -2.7985115070
   49      C       6.3214989092    -0.4554455215    -2.7936117366
   50      C       9.1616957910    -1.9519463995    -4.6210699654
   51      N      10.2460502367    -2.2110647871    -4.9428648910
   52      C       6.0284616844     0.7820602763    -2.0212034821
   53      H       6.9128411192     1.4203298691    -2.0216318971
   54      H       5.8048743539     0.5687084263    -0.9698469222
   55      C       2.8972846839    -2.3120179336    -3.2672786758
   56      C       2.1017337486    -1.8672867995    -4.3048858282
   57      H       2.1576593786    -0.8414753097    -4.6497139616
   58      C       1.2196895905    -2.7642270193    -4.8948960914
   59      H       0.5865386732    -2.4370915943    -5.7091611528
   60      C       1.1434115012    -4.0789384885    -4.4446582798
   61      H       0.4502585072    -4.7642605892    -4.9140657476
   62      C       1.9389348917    -4.5189510131    -3.3963838677
   63      H       1.8642626502    -5.5400453166    -3.0447436320
   64      C       2.8183362969    -3.6230714075    -2.8060248355
   65      C       3.7323756536    -3.7728818862    -1.6788958591
   66      C       4.0186290958    -4.8688535004    -0.8823207439
   67      H       3.5491790846    -5.8268206690    -1.0663385967
   68      C       4.9179268046    -4.7184476184     0.1652592326
   69      H       5.1525643649    -5.5661665707     0.7951485009
   70      C       5.5110884380    -3.4880659769     0.4212327806
   71      H       6.1980808531    -3.3848872029     1.2506216290
   72      C       5.2267702863    -2.3871771456    -0.3777427418
   73      H       5.6826375924    -1.4303446866    -0.1602060383
   74      C       4.3427076854    -2.5418281235    -1.4285124684
   75      C      -2.5737747191     1.6915915222     0.8777998019
   76      H      -1.6980873878     2.0323164567     0.3253842364
   77      H      -3.4531996555     1.8809336340     0.2596055298
   78      H      -2.6529678954     2.2957995010     1.7835013993
 ----------------------------------------------------------------

   17   -1846.1267837878      6.18E-09 Convergence criterion met
 Total energy in the final basis set = -1846.12678379
