 Q-Chem 5.1, Q-Chem, Inc., Pleasanton, CA (2018)
 Q-Chem 5.1.1 for Intel X86 EM64T Linux

User input:
--------------------------------------------------------------
$rem
threads 8
jobtype sp
method PBEh-3c
basis def2-mSVP
mem_static      1024
mem_total       8000
sym_ignore      true
unrestricted true
scf_algorithm	diis
scf_max_cycles	250
solvent_method  pcm
make_cube_files	true
$end

$pcm
theory  iefpcm
$end

$solvent
dielectric      2.38
$end

$plots
att. det. elec. hole and diff. dens for moms1opt_tol.out
156 -9.64 10.02
83 -6.60 5.73
170 -12.00 9.07
0 1 0 0
0
$end

$molecule
0 1
C         0.0250415695   -0.4037281803    0.0778105540
C         0.0209059204   -0.3908703706    1.4893074942
H         0.9686030967   -0.4032883839    2.0178161367
C        -1.1607115466   -0.3592635115    2.1951083292
C        -2.3988686102   -0.3334951187    1.4877829195
C        -2.4224284615   -0.3425984508    0.1188585387
H        -3.3791556307   -0.3189068413   -0.3965086047
C        -1.2210845110   -0.3786856888   -0.6214331556
C        -1.4700030195   -0.3418784301    3.6254691596
C        -0.7415620151   -0.3529668152    4.7880968627
H         0.3409042836   -0.3795424136    4.7833185884
C        -2.8779968481   -0.3070705405    3.7281734761
C        -3.5876953756   -0.2829796629    4.9249443516
C        -3.4863757784   -0.2996047610    2.4582100312
C        -4.8560680462   -0.2654939031    2.3777923989
H        -5.3734531915   -0.2570517042    1.4257239668
C        -1.4353822699   -0.3290592929    6.0217072452
H        -0.8557806406   -0.3380977613    6.9359170064
C        -2.8084900264   -0.2951058380    6.1069553265
H        -3.2910509150   -0.2775746891    7.0764836232
C        -5.6005290043   -0.2405053435    3.5787159609
H        -6.6813858271   -0.2136067962    3.5188201664
C        -5.0001376710   -0.2488958748    4.8174587933
H        -5.6110145144   -0.2288467101    5.7118459621
B        -1.2345046301   -0.3814119277   -2.1479889019
C         0.0700072949   -0.3851716693   -2.9388985060
C         0.0675514467   -0.3848275188   -4.3499063129
H        -0.8718504868   -0.3607569256   -4.8960688334
C         1.2430765870   -0.4173427996   -5.0489910963
C         2.4947161070   -0.4589320395   -4.3679358651
C         2.5155388919   -0.4588472811   -2.9925734165
H         3.4618538420   -0.4982522075   -2.4636748595
C         1.3176959959   -0.4173984563   -2.2470336398
C         1.4973079629   -0.4313063373   -6.4855358881
C         0.7122869437   -0.4080811086   -7.6115515908
H        -0.3687640636   -0.3642294491   -7.5542043407
C         2.8955996720   -0.4863935585   -6.6357139722
C         3.5407125110   -0.5227706146   -7.8699843368
C         3.5481717963   -0.5058146702   -5.3845826723
C         4.9192498104   -0.5655669546   -5.3794853542
H         5.4855374802   -0.5865344251   -4.4569700471
C         1.3417534631   -0.4422241307   -8.8768148109
H         0.7225865084   -0.4235473638   -9.7650500011
C         2.7096000018   -0.4985222059   -9.0169058290
H         3.1507100023   -0.5242653273  -10.0060931477
C         5.6035777179   -0.6029277018   -6.6182141484
H         6.6850174866   -0.6503032221   -6.6053908135
C         4.9541980732   -0.5828734397   -7.8310696862
H         5.5228033025   -0.6144697892   -8.7525941986
B         1.3521539217   -0.4338264185   -0.7065963753
C        -2.6064761279   -0.4136496428   -2.9302126274
C        -3.3467453602    0.7902988719   -3.1853624002
C        -4.5168305549    0.7347819845   -3.8834570019
H        -5.0968771405    1.6287839884   -4.0803327657
C        -5.0054527416   -0.5031530129   -4.3799097019
O        -6.1285028410   -0.4333299838   -5.0410487153
C        -4.2937683707   -1.6973360166   -4.1496058805
H        -4.6583391805   -2.6421674852   -4.5313682124
C        -3.1294716319   -1.6640778283   -3.4313316505
C        -6.7325915970   -1.6014990738   -5.5968390962
H        -7.6426610698   -1.2623185048   -6.0807212036
H        -6.9819999853   -2.3210151293   -4.8167473251
H        -6.0789795976   -2.0646489450   -6.3363151360
C        -2.8196082204    2.1181008341   -2.7304209798
H        -2.2522937304    1.9971698856   -1.8069239069
H        -3.6589526878    2.7789335304   -2.5031768856
C        -2.4172234146   -2.9496444459   -3.1429607291
H        -1.3401573789   -2.7819940320   -3.1207255979
H        -2.6148357846   -3.6597968248   -3.9487820812
C        -1.9346717977    2.7628865492   -3.7974294556
H        -1.0637085539    2.1468211285   -4.0182526377
H        -1.5746152771    3.7314934785   -3.4525390794
H        -2.4855507279    2.9183849249   -4.7259517602
C        -2.8691297174   -3.5520804414   -1.8105009982
H        -2.6506874934   -2.8846336346   -0.9784158451
H        -2.3438504153   -4.4890835050   -1.6297024142
H        -3.9399130453   -3.7589317653   -1.8120949816
C         2.7350669575   -0.4919114517    0.0518680223
C         3.5122516587    0.6574727651    0.2257335931
C         4.7304561343    0.6055420902    0.9045009026
H         5.2973910589    1.5213262949    1.0213977130
C         5.1941687044   -0.5987301397    1.4150797408
O         6.3591299270   -0.7489706495    2.0863165760
C         4.4321707990   -1.7501620378    1.2413567822
H         4.8007477165   -2.6896086218    1.6392543625
C         3.2189204556   -1.7049542320    0.5728272206
C         7.1509759332    0.3897227106    2.3065755006
H         8.0233529935    0.0599107442    2.8672508121
H         7.4914633795    0.8464430173    1.3716811113
H         6.6280524393    1.1516902209    2.8934794189
C         3.0264913531    1.9974582421   -0.2666636185
H         2.4758414786    1.8785456489   -1.2026041676
H         3.8837106194    2.6354078477   -0.4988601951
C         2.4566260012   -2.9918913536    0.3762230200
H         1.3817307375   -2.8058512021    0.4341911205
H         2.6900184258   -3.6804600817    1.1926226970
C         2.7775256274   -3.6674232253   -0.9559909249
H         2.5015074781   -3.0329781485   -1.7982414381
H         3.8430297395   -3.8855826698   -1.0396470416
H         2.2337572331   -4.6081985826   -1.0571918949
C         2.1336908458    2.7039570306    0.7515401828
H         1.2361769390    2.1209221575    0.9586237136
H         2.6570976420    2.8554380605    1.6966577118
H         1.8165692572    3.6805724784    0.3824029177
$end
--------------------------------------------------------------

             Standard Nuclear Orientation (Angstroms)
    I     Atom           X                Y                Z
 ----------------------------------------------------------------
    1      C       0.0250415695    -0.4037281803     0.0778105540
    2      C       0.0209059204    -0.3908703706     1.4893074942
    3      H       0.9686030967    -0.4032883839     2.0178161367
    4      C      -1.1607115466    -0.3592635115     2.1951083292
    5      C      -2.3988686102    -0.3334951187     1.4877829195
    6      C      -2.4224284615    -0.3425984508     0.1188585387
    7      H      -3.3791556307    -0.3189068413    -0.3965086047
    8      C      -1.2210845110    -0.3786856888    -0.6214331556
    9      C      -1.4700030195    -0.3418784301     3.6254691596
   10      C      -0.7415620151    -0.3529668152     4.7880968627
   11      H       0.3409042836    -0.3795424136     4.7833185884
   12      C      -2.8779968481    -0.3070705405     3.7281734761
   13      C      -3.5876953756    -0.2829796629     4.9249443516
   14      C      -3.4863757784    -0.2996047610     2.4582100312
   15      C      -4.8560680462    -0.2654939031     2.3777923989
   16      H      -5.3734531915    -0.2570517042     1.4257239668
   17      C      -1.4353822699    -0.3290592929     6.0217072452
   18      H      -0.8557806406    -0.3380977613     6.9359170064
   19      C      -2.8084900264    -0.2951058380     6.1069553265
   20      H      -3.2910509150    -0.2775746891     7.0764836232
   21      C      -5.6005290043    -0.2405053435     3.5787159609
   22      H      -6.6813858271    -0.2136067962     3.5188201664
   23      C      -5.0001376710    -0.2488958748     4.8174587933
   24      H      -5.6110145144    -0.2288467101     5.7118459621
   25      B      -1.2345046301    -0.3814119277    -2.1479889019
   26      C       0.0700072949    -0.3851716693    -2.9388985060
   27      C       0.0675514467    -0.3848275188    -4.3499063129
   28      H      -0.8718504868    -0.3607569256    -4.8960688334
   29      C       1.2430765870    -0.4173427996    -5.0489910963
   30      C       2.4947161070    -0.4589320395    -4.3679358651
   31      C       2.5155388919    -0.4588472811    -2.9925734165
   32      H       3.4618538420    -0.4982522075    -2.4636748595
   33      C       1.3176959959    -0.4173984563    -2.2470336398
   34      C       1.4973079629    -0.4313063373    -6.4855358881
   35      C       0.7122869437    -0.4080811086    -7.6115515908
   36      H      -0.3687640636    -0.3642294491    -7.5542043407
   37      C       2.8955996720    -0.4863935585    -6.6357139722
   38      C       3.5407125110    -0.5227706146    -7.8699843368
   39      C       3.5481717963    -0.5058146702    -5.3845826723
   40      C       4.9192498104    -0.5655669546    -5.3794853542
   41      H       5.4855374802    -0.5865344251    -4.4569700471
   42      C       1.3417534631    -0.4422241307    -8.8768148109
   43      H       0.7225865084    -0.4235473638    -9.7650500011
   44      C       2.7096000018    -0.4985222059    -9.0169058290
   45      H       3.1507100023    -0.5242653273   -10.0060931477
   46      C       5.6035777179    -0.6029277018    -6.6182141484
   47      H       6.6850174866    -0.6503032221    -6.6053908135
   48      C       4.9541980732    -0.5828734397    -7.8310696862
   49      H       5.5228033025    -0.6144697892    -8.7525941986
   50      B       1.3521539217    -0.4338264185    -0.7065963753
   51      C      -2.6064761279    -0.4136496428    -2.9302126274
   52      C      -3.3467453602     0.7902988719    -3.1853624002
   53      C      -4.5168305549     0.7347819845    -3.8834570019
   54      H      -5.0968771405     1.6287839884    -4.0803327657
   55      C      -5.0054527416    -0.5031530129    -4.3799097019
   56      O      -6.1285028410    -0.4333299838    -5.0410487153
   57      C      -4.2937683707    -1.6973360166    -4.1496058805
   58      H      -4.6583391805    -2.6421674852    -4.5313682124
   59      C      -3.1294716319    -1.6640778283    -3.4313316505
   60      C      -6.7325915970    -1.6014990738    -5.5968390962
   61      H      -7.6426610698    -1.2623185048    -6.0807212036
   62      H      -6.9819999853    -2.3210151293    -4.8167473251
   63      H      -6.0789795976    -2.0646489450    -6.3363151360
   64      C      -2.8196082204     2.1181008341    -2.7304209798
   65      H      -2.2522937304     1.9971698856    -1.8069239069
   66      H      -3.6589526878     2.7789335304    -2.5031768856
   67      C      -2.4172234146    -2.9496444459    -3.1429607291
   68      H      -1.3401573789    -2.7819940320    -3.1207255979
   69      H      -2.6148357846    -3.6597968248    -3.9487820812
   70      C      -1.9346717977     2.7628865492    -3.7974294556
   71      H      -1.0637085539     2.1468211285    -4.0182526377
   72      H      -1.5746152771     3.7314934785    -3.4525390794
   73      H      -2.4855507279     2.9183849249    -4.7259517602
   74      C      -2.8691297174    -3.5520804414    -1.8105009982
   75      H      -2.6506874934    -2.8846336346    -0.9784158451
   76      H      -2.3438504153    -4.4890835050    -1.6297024142
   77      H      -3.9399130453    -3.7589317653    -1.8120949816
   78      C       2.7350669575    -0.4919114517     0.0518680223
   79      C       3.5122516587     0.6574727651     0.2257335931
   80      C       4.7304561343     0.6055420902     0.9045009026
   81      H       5.2973910589     1.5213262949     1.0213977130
   82      C       5.1941687044    -0.5987301397     1.4150797408
   83      O       6.3591299270    -0.7489706495     2.0863165760
   84      C       4.4321707990    -1.7501620378     1.2413567822
   85      H       4.8007477165    -2.6896086218     1.6392543625
   86      C       3.2189204556    -1.7049542320     0.5728272206
   87      C       7.1509759332     0.3897227106     2.3065755006
   88      H       8.0233529935     0.0599107442     2.8672508121
   89      H       7.4914633795     0.8464430173     1.3716811113
   90      H       6.6280524393     1.1516902209     2.8934794189
   91      C       3.0264913531     1.9974582421    -0.2666636185
   92      H       2.4758414786     1.8785456489    -1.2026041676
   93      H       3.8837106194     2.6354078477    -0.4988601951
   94      C       2.4566260012    -2.9918913536     0.3762230200
   95      H       1.3817307375    -2.8058512021     0.4341911205
   96      H       2.6900184258    -3.6804600817     1.1926226970
   97      C       2.7775256274    -3.6674232253    -0.9559909249
   98      H       2.5015074781    -3.0329781485    -1.7982414381
   99      H       3.8430297395    -3.8855826698    -1.0396470416
  100      H       2.2337572331    -4.6081985826    -1.0571918949
  101      C       2.1336908458     2.7039570306     0.7515401828
  102      H       1.2361769390     2.1209221575     0.9586237136
  103      H       2.6570976420     2.8554380605     1.6966577118
  104      H       1.8165692572     3.6805724784     0.3824029177
 ----------------------------------------------------------------

    7   -2280.7190667623      7.97e-06  Convergence criterion met
 Total energy in the final basis set =    -2280.7190667623

                    Orbital Energies (a.u.)
 --------------------------------------------------------------

 Alpha MOs
 -- Occupied --
-19.526 -19.524 -10.502 -10.500 -10.489 -10.483 -10.463 -10.463
-10.462 -10.462 -10.462 -10.462 -10.462 -10.462 -10.460 -10.460
-10.460 -10.460 -10.460 -10.459 -10.459 -10.459 -10.458 -10.458
-10.457 -10.457 -10.457 -10.457 -10.452 -10.451 -10.450 -10.450
-10.449 -10.448 -10.447 -10.446 -10.446 -10.445 -10.433 -10.433
-10.432 -10.431 -10.431 -10.431 -10.430 -10.429 -10.429 -10.428
-10.428 -10.424 -10.418 -10.416 -10.416 -10.416 -10.416 -10.415
 -6.944  -6.937  -1.192  -1.179  -1.013  -1.013  -0.959  -0.956
 -0.952  -0.945  -0.931  -0.931  -0.905  -0.896  -0.887  -0.885
 -0.863  -0.859  -0.852  -0.852  -0.844  -0.844  -0.822  -0.818
 -0.816  -0.811  -0.809  -0.801  -0.799  -0.799  -0.771  -0.767
 -0.733  -0.727  -0.724  -0.718  -0.708  -0.707  -0.701  -0.700
 -0.686  -0.679  -0.677  -0.663  -0.653  -0.644  -0.642  -0.642
 -0.628  -0.625  -0.593  -0.589  -0.589  -0.586  -0.581  -0.580
 -0.579  -0.573  -0.573  -0.560  -0.559  -0.541  -0.541  -0.537
 -0.534  -0.531  -0.524  -0.521  -0.511  -0.504  -0.502  -0.501
 -0.500  -0.498  -0.496  -0.492  -0.490  -0.487  -0.486  -0.483
 -0.482  -0.482  -0.480  -0.478  -0.478  -0.477  -0.475  -0.463
 -0.460  -0.457  -0.456  -0.453  -0.452  -0.449  -0.439  -0.438
 -0.433  -0.431  -0.429  -0.427  -0.426  -0.424  -0.423  -0.415
 -0.414  -0.410  -0.405  -0.404  -0.399  -0.398  -0.395  -0.394
 -0.393  -0.392  -0.391  -0.389  -0.389  -0.385  -0.379  -0.378
 -0.375  -0.370  -0.360  -0.359  -0.355  -0.353  -0.350  -0.346
 -0.339  -0.333  -0.316  -0.311  -0.294  -0.293  -0.280  -0.276
 -0.274  -0.260  -0.253  -0.252  -0.249  -0.234

 Beta MOs
 -- Occupied --
-19.526 -19.524 -10.502 -10.500 -10.489 -10.483 -10.463 -10.463
-10.462 -10.462 -10.462 -10.462 -10.462 -10.462 -10.460 -10.460
-10.460 -10.460 -10.460 -10.459 -10.459 -10.459 -10.458 -10.458
-10.457 -10.457 -10.457 -10.457 -10.452 -10.451 -10.450 -10.450
-10.449 -10.448 -10.447 -10.446 -10.446 -10.445 -10.433 -10.433
-10.432 -10.431 -10.431 -10.431 -10.430 -10.429 -10.429 -10.428
-10.428 -10.424 -10.418 -10.416 -10.416 -10.416 -10.416 -10.415
 -6.944  -6.937  -1.192  -1.179  -1.013  -1.013  -0.959  -0.956
 -0.952  -0.945  -0.931  -0.931  -0.905  -0.896  -0.887  -0.885
 -0.863  -0.859  -0.852  -0.852  -0.844  -0.844  -0.822  -0.818
 -0.816  -0.811  -0.809  -0.801  -0.799  -0.799  -0.771  -0.767
 -0.733  -0.727  -0.724  -0.718  -0.708  -0.707  -0.701  -0.700
 -0.686  -0.679  -0.677  -0.663  -0.653  -0.644  -0.642  -0.642
 -0.628  -0.625  -0.593  -0.589  -0.589  -0.586  -0.581  -0.580
 -0.579  -0.573  -0.573  -0.560  -0.559  -0.541  -0.541  -0.537
 -0.534  -0.531  -0.524  -0.521  -0.511  -0.504  -0.502  -0.501
 -0.500  -0.498  -0.496  -0.492  -0.490  -0.487  -0.486  -0.483
 -0.482  -0.482  -0.480  -0.478  -0.478  -0.477  -0.475  -0.463
 -0.460  -0.457  -0.456  -0.453  -0.452  -0.449  -0.439  -0.438
 -0.433  -0.431  -0.429  -0.427  -0.426  -0.424  -0.423  -0.415
 -0.414  -0.410  -0.405  -0.404  -0.399  -0.398  -0.395  -0.394
 -0.393  -0.392  -0.391  -0.389  -0.389  -0.385  -0.379  -0.378
 -0.375  -0.370  -0.360  -0.359  -0.355  -0.353  -0.350  -0.346
 -0.339  -0.333  -0.316  -0.311  -0.294  -0.293  -0.280  -0.276
 -0.274  -0.260  -0.253  -0.252  -0.249  -0.234

          Ground-State Mulliken Net Atomic Charges

     Atom                 Charge (a.u.)    Spin (a.u.)
  --------------------------------------------------------
      1 C                    -0.147567      -0.000000
      2 C                    -0.404677       0.000000
      3 H                     0.243076       0.000000
      4 C                     0.112279      -0.000000
      5 C                     0.082619       0.000000
      6 C                    -0.391642       0.000000
      7 H                     0.243580       0.000000
      8 C                    -0.146860       0.000000
      9 C                     0.188411       0.000000
     10 C                    -0.392120      -0.000000
     11 H                     0.238103       0.000000
     12 C                    -0.066562       0.000000
     13 C                     0.236264      -0.000000
     14 C                     0.189597      -0.000000
     15 C                    -0.383363      -0.000000
     16 H                     0.238147       0.000000
     17 C                    -0.218453      -0.000000
     18 H                     0.242001      -0.000000
     19 C                    -0.343841       0.000000
     20 H                     0.237971       0.000000
     21 C                    -0.221073       0.000000
     22 H                     0.242589      -0.000000
     23 C                    -0.340198      -0.000000
     24 H                     0.237432       0.000000
     25 B                     0.628786      -0.000000
     26 C                    -0.144669       0.000000
     27 C                    -0.390945      -0.000000
     28 H                     0.244968      -0.000000
     29 C                     0.083067       0.000000
     30 C                     0.112868      -0.000000
     31 C                    -0.402988       0.000000
     32 H                     0.243369       0.000000
     33 C                    -0.150319      -0.000000
     34 C                     0.190056      -0.000000
     35 C                    -0.385048      -0.000000
     36 H                     0.237509       0.000000
     37 C                    -0.066590       0.000000
     38 C                     0.235573      -0.000000
     39 C                     0.189270      -0.000000
     40 C                    -0.393472       0.000000
     41 H                     0.237635      -0.000000
     42 C                    -0.220498       0.000000
     43 H                     0.242332      -0.000000
     44 C                    -0.339877       0.000000
     45 H                     0.237497       0.000000
     46 C                    -0.218012      -0.000000
     47 H                     0.241772      -0.000000
     48 C                    -0.343787      -0.000000
     49 H                     0.238101      -0.000000
     50 B                     0.647588       0.000000
     51 C                    -0.259327      -0.000000
     52 C                     0.099056       0.000000
     53 C                    -0.404749      -0.000000
     54 H                     0.225003       0.000000
     55 C                     0.395438       0.000000
     56 O                    -0.450405      -0.000000
     57 C                    -0.458040      -0.000000
     58 H                     0.233581       0.000000
     59 C                     0.094407       0.000000
     60 C                    -0.414891       0.000000
     61 H                     0.251657      -0.000000
     62 H                     0.219862       0.000000
     63 H                     0.219442      -0.000000
     64 C                    -0.550537       0.000000
     65 H                     0.253392       0.000000
     66 H                     0.234746      -0.000000
     67 C                    -0.551736       0.000000
     68 H                     0.257538       0.000000
     69 H                     0.231199      -0.000000
     70 C                    -0.654169      -0.000000
     71 H                     0.243083       0.000000
     72 H                     0.221609       0.000000
     73 H                     0.219445      -0.000000
     74 C                    -0.652829      -0.000000
     75 H                     0.246404       0.000000
     76 H                     0.221098       0.000000
     77 H                     0.216582       0.000000
     78 C                    -0.219399       0.000000
     79 C                     0.074682      -0.000000
     80 C                    -0.437901       0.000000
     81 H                     0.237585       0.000000
     82 C                     0.394518      -0.000000
     83 O                    -0.463422       0.000000
     84 C                    -0.391662       0.000000
     85 H                     0.229283      -0.000000
     86 C                     0.072070      -0.000000
     87 C                    -0.418162      -0.000000
     88 H                     0.246691      -0.000000
     89 H                     0.211408       0.000000
     90 H                     0.211692       0.000000
     91 C                    -0.551997       0.000000
     92 H                     0.255949       0.000000
     93 H                     0.231841      -0.000000
     94 C                    -0.552271       0.000000
     95 H                     0.254494      -0.000000
     96 H                     0.235490       0.000000
     97 C                    -0.654446      -0.000000
     98 H                     0.243314       0.000000
     99 H                     0.219996       0.000000
    100 H                     0.222176       0.000000
    101 C                    -0.652955      -0.000000
    102 H                     0.244191      -0.000000
    103 H                     0.217065       0.000000
    104 H                     0.223014       0.000000
  --------------------------------------------------------
  Sum of atomic charges =    -0.000002

                    Cartesian Multipole Moments
 -----------------------------------------------------------------
    Charge (ESU x 10^10)
                -0.0000
    Dipole Moment (Debye)
         X      -0.3862      Y      -0.1373      Z      -0.7158
       Tot       0.8249
    Quadrupole Moments (Debye-Ang)
        XX    -280.9014     XY      18.8842     YY    -336.4827
        XZ       0.6232     YZ      12.6971     ZZ    -278.0078

 Total job time:  809.56s(wall), 4674.15s(cpu)
        *  Thank you very much for using Q-Chem.  Have a nice day.  *
