 Q-Chem 5.1, Q-Chem, Inc., Pleasanton, CA (2018)
 Q-Chem 5.1.1 for Intel X86 EM64T Linux

User input:
--------------------------------------------------------------
$rem
threads 8
jobtype	opt
method PBEh-3c
basis def2-mSVP
mem_static	512
mem_total	6096
sym_ignore	true
$end

$molecule
read incoords.mol
$end

--------------------------------------------------------------

   15   -2858.9679556808      6.90e-09  Convergence criterion met
 Total energy in the final basis set =    -2858.9679556808
   12   -2859.0221547170      7.12e-09  Convergence criterion met
 Total energy in the final basis set =    -2859.0221547170
   12   -2859.0518640875      8.11e-09  Convergence criterion met
 Total energy in the final basis set =    -2859.0518640875
   12   -2859.0624857905      7.52e-09  Convergence criterion met
 Total energy in the final basis set =    -2859.0624857905
   12   -2859.0658685426      6.30e-09  Convergence criterion met
 Total energy in the final basis set =    -2859.0658685426
   12   -2859.0671391751      6.02e-09  Convergence criterion met
 Total energy in the final basis set =    -2859.0671391751
   12   -2859.0683988588      4.93e-09  Convergence criterion met
 Total energy in the final basis set =    -2859.0683988588
   11   -2859.0692931748      7.74e-09  Convergence criterion met
   10   -2859.0687035171      5.66e-09  Convergence criterion met
 Total energy in the final basis set =    -2859.0687035171
   10   -2859.0686367179      4.31e-09  Convergence criterion met
 Total energy in the final basis set =    -2859.0686367179
    9   -2859.0687337569      9.42e-09  Convergence criterion met
 Total energy in the final basis set =    -2859.0687337569
    9   -2859.0686990926      5.66e-09  Convergence criterion met
 Total energy in the final basis set =    -2859.0686990926
    8   -2859.0686924909      6.00e-09  Convergence criterion met
 Total energy in the final basis set =    -2859.0686924909
    7   -2859.0686949727      6.62e-09  Convergence criterion met
 Total energy in the final basis set =    -2859.0686949727

             Standard Nuclear Orientation (Angstroms)
    I     Atom           X                Y                Z
 ----------------------------------------------------------------
    1      C      -7.5048920804     4.5879239824     2.9407694434
    2      C      -8.1843560335     3.3474435665     3.2262435219
    3      B      -7.3669134958     2.0715149957     3.5525678591
    4      C      -5.8428364673     2.2024092315     3.8248291317
    5      C      -5.1666783551     3.4005246040     3.4995505662
    6      B      -5.9562704585     4.6163407672     2.9236619479
    7      C      -3.7801054368     3.4521991033     3.6549402475
    8      C      -3.0740476009     2.3752137270     4.1695083245
    9      C      -3.7422206183     1.2065761857     4.5063950985
   10      C      -5.1122388039     1.1181889181     4.3127127786
   11      C      -8.2361506012     5.6922725008     2.5977557392
   12      C      -9.6585013895     5.6685208961     2.5340819181
   13      C     -10.3278510760     4.4376023329     2.8120824788
   14      C      -9.5469588119     3.2957687372     3.1381601777
   15      H      -7.7286319697     6.6152649317     2.3367549582
   16      C      -8.0754981760     0.6695012636     3.4664599288
   17      C      -5.1882526602     5.7861918342     2.2138121238
   18      C      -8.1369818504     0.0602599954     2.2036389455
   19      C      -8.8444443147    -1.1213615012     2.0427537238
   20      C      -9.4900295517    -1.7096218008     3.1171315228
   21      C      -9.4004385333    -1.1360298454     4.3719655543
   22      C      -8.6972395011     0.0524282042     4.5565863714
   23      C      -8.6699337837     0.6710022086     5.9309242017
   24      C      -7.4192569800     0.6323250435     1.0079344363
   25      H      -8.9186511471    -1.5858763206     1.0652999050
   26      N     -10.2815184061    -2.8718199137     2.9049377202
   27      H      -9.9023073802    -1.6141100281     5.2060454337
   28      C      -4.5107334764     6.7883805194     2.9193376345
   29      C      -3.7466339530     7.7298051902     2.2325285878
   30      C      -3.6731785858     7.6932506299     0.8515793350
   31      C      -4.3838278303     6.7337080153     0.1501237878
   32      C      -5.1320713535     5.7724430716     0.8102007522
   33      C      -5.7841763293     4.6899684225    -0.0144773381
   34      C      -4.6417292243     6.8959671969     4.4157790919
   35      H      -3.1923608340     8.4880541911     2.7742973304
   36      N      -2.8440725524     8.5858221448     0.1168658895
   37      H      -4.3235725073     6.7218442210    -0.9328889755
   38      C     -11.7112121416     4.3754966850     2.7276909407
   39      H      -5.6248619973     0.1896427507     4.5367987481
   40      H      -3.2425994766     4.3473467976     3.3651255793
   41      H     -10.0666215601     2.3575112244     3.3024897002
   42      C     -10.4090109454     6.7809941096     2.1771271573
   43      C     -11.7995868972     6.7208262830     2.0842555079
   44      C     -12.4665355757     5.4893439515     2.3687375729
   45      C     -12.5817842660     7.8455866370     1.7053573367
   46      C     -13.8830223941     5.4347028475     2.2666197555
   47      H      -2.0009788319     2.4409643173     4.2960203790
   48      H      -3.1924778356     0.3606868862     4.8990920139
   49      H     -12.2144418124     3.4375486877     2.9369094533
   50      H      -9.9031579933     7.7143643147     1.9568612848
   51      C     -13.9361890152     7.7545150680     1.6146527320
   52      C     -14.5966679685     6.5325685015     1.8998498573
   53      H     -14.3860680265     4.5002040129     2.4836708080
   54      H     -15.6745342890     6.4791615796     1.8224575841
   55      H     -12.0799738917     8.7798551820     1.4860191452
   56      H     -14.5195644766     8.6176437002     1.3228168246
   57      C      -6.0641717579    -0.0350808472     0.7848800842
   58      H      -7.2812583817     1.7127019715     1.1120843988
   59      H      -8.0388947597     0.5028357016     0.1168245465
   60      H      -5.4052944443     0.1200147218     1.6391832639
   61      H      -5.5682924028     0.3710753759    -0.0970145488
   62      H      -6.1768422763    -1.1102113391     0.6413506912
   63      C      -4.8516534161     3.5036852566    -0.2558101928
   64      H      -6.0850584336     5.1083195612    -0.9782745191
   65      H      -6.7067960087     4.3405005747     0.4535781013
   66      H      -3.9325880298     3.8207960059    -0.7494277165
   67      H      -5.3320636260     2.7569585795    -0.8896209989
   68      H      -4.5730939873     3.0154595859     0.6786048329
   69      C     -10.0069623975     1.2888128307     6.3319780126
   70      H      -7.8865257501     1.4318188826     5.9901611387
   71      H      -8.3950248310    -0.0933561969     6.6631822333
   72      H     -10.2782528484     2.1107962279     5.6693809138
   73      H      -9.9653563821     1.6842069513     7.3470191226
   74      H     -10.8107714340     0.5528092194     6.2944700773
   75      C      -5.8176799590     7.7815398492     4.8222654769
   76      H      -3.7195632233     7.3003732192     4.8404139639
   77      H      -4.7686193006     5.9056166570     4.8619097287
   78      H      -5.7156679554     8.7846563407     4.4067047201
   79      H      -5.8847641428     7.8722043788     5.9067342674
   80      H      -6.7618211698     7.3679328558     4.4670239753
   81      C      -3.4047837083     9.7556456776    -0.3926364670
   82      C      -2.8464530008    10.3930505734    -1.5035114529
   83      C      -4.5523576785    10.2882633272     0.2053006364
   84      C      -5.1362222134    11.4397658267    -0.2823913440
   85      C      -4.5874072469    12.0877867603    -1.3771759051
   86      C      -3.4575312215    11.5540573050    -1.9675806583
   87      H      -3.0487981784    12.0495601031    -2.8390684522
   88      H      -6.0255062296    11.8277173712     0.1971182063
   89      H      -5.0372668643    12.9882133247    -1.7727224920
   90      H      -4.9971577084     9.7896634946     1.0550914530
   91      C      -1.6721140249     8.0536515252    -0.4216492917
   92      C      -1.0701900786     8.6252824668    -1.5439871349
   93      C      -1.1028309044     6.9165246283     0.1643796602
   94      C       0.0806909352     8.0252660237    -2.0474381284
   95      C       0.6409285970     6.8973400576    -1.4789345863
   96      C       0.0373720108     6.3443752729    -0.3608295822
   97      C      -1.6719736440     9.8129672909    -2.2725905531
   98      H      -1.5639452254     6.4697341603     1.0342130112
   99      H       0.5471357821     8.4422245128    -2.9311646601
  100      H       1.5303354548     6.4544753677    -1.9060705169
  101      H       0.4518106345     5.4611939629     0.1075785277
  102      C     -11.5912175343    -2.7056450048     2.4681319621
  103      C     -12.3817126619    -3.8117837236     2.1390106649
  104      C     -12.1353745271    -1.4192759785     2.3561619075
  105      C     -13.6861654856    -3.5857497527     1.7117352976
  106      C     -14.2258557983    -2.3184287927     1.5985996669
  107      C     -13.4337054721    -1.2308976619     1.9263174351
  108      H     -11.5372594885    -0.5551105088     2.6049969180
  109      H     -14.3068787844    -4.4354503417     1.4549312973
  110      H     -15.2446283428    -2.1851106255     1.2610239749
  111      H     -13.8238916023    -0.2244920254     1.8471957052
  112      C      -9.6933157275    -4.1289629747     2.9837205973
  113      C     -10.4238163857    -5.2818904542     2.6770797599
  114      C      -8.3542348694    -4.2474365268     3.3739738693
  115      C      -9.7846517959    -6.5127938589     2.7854731654
  116      C      -8.4644921232    -6.6350724966     3.1762387884
  117      C      -7.7499878855    -5.4852216813     3.4692889689
  118      H      -7.7798390398    -3.3616274287     3.6030722796
  119      H     -10.3398218381    -7.4136956675     2.5542443714
  120      H      -8.0033716532    -7.6106441988     3.2487944547
  121      H      -6.7133595142    -5.5461405550     3.7738544838
  122      C     -11.8780509920    -5.2424037185     2.2378903439
  123      C     -12.0081689468    -5.9197829367     0.8624233156
  124      C     -12.7350077377    -6.0054662661     3.2634850950
  125      H     -11.4098790330    -5.4018634579     0.1133945699
  126      H     -13.0428184671    -5.9269674834     0.5184922691
  127      H     -11.6765579276    -6.9578383403     0.8972561564
  128      H     -12.6683378522    -5.5446641473     4.2487498163
  129      H     -12.4107178644    -7.0428868954     3.3561999970
  130      H     -13.7856280332    -6.0185061218     2.9701231129
  131      C      -2.1821531770     9.3333431000    -3.6446292130
  132      C      -0.5983128569    10.8934455874    -2.4725892346
  133      H      -0.2250523610    11.2512284607    -1.5136379579
  134      H      -0.9877187256    11.7491739226    -3.0239468320
  135      H       0.2489604031    10.5147423479    -3.0439448167
  136      H      -2.9482420370     8.5666336581    -3.5270560396
  137      H      -1.3719459184     8.9090492626    -4.2397065601
  138      H      -2.6169149882    10.1568871303    -4.2131039683
 ----------------------------------------------------------------

    7   -2859.0687011767      9.09e-09  Convergence criterion met
 Total energy in the final basis set =    -2859.0687011767
 Final energy is   -2859.06870117667
 **  OPTIMIZATION CONVERGED  **

                    Orbital Energies (a.u.)
 --------------------------------------------------------------

 Alpha MOs
 -- Occupied --
-14.672 -14.670 -10.488 -10.488 -10.487 -10.487 -10.484 -10.484
-10.473 -10.473 -10.471 -10.470 -10.466 -10.466 -10.465 -10.465
-10.464 -10.463 -10.462 -10.462 -10.461 -10.461 -10.461 -10.460
-10.459 -10.459 -10.457 -10.457 -10.457 -10.456 -10.447 -10.447
-10.446 -10.446 -10.445 -10.445 -10.444 -10.443 -10.443 -10.442
-10.442 -10.442 -10.440 -10.440 -10.440 -10.440 -10.440 -10.440
-10.439 -10.439 -10.439 -10.439 -10.438 -10.437 -10.436 -10.436
-10.436 -10.435 -10.434 -10.433 -10.433 -10.433 -10.432 -10.431
-10.429 -10.429 -10.425 -10.424 -10.424 -10.423 -10.422 -10.422
 -6.956  -6.956  -1.085  -1.084  -1.002  -0.972  -0.971  -0.965
 -0.961  -0.955  -0.954  -0.950  -0.949  -0.910  -0.906  -0.904
 -0.897  -0.896  -0.895  -0.871  -0.871  -0.856  -0.852  -0.846
 -0.846  -0.845  -0.835  -0.832  -0.831  -0.827  -0.825  -0.812
 -0.811  -0.808  -0.807  -0.805  -0.789  -0.788  -0.767  -0.765
 -0.741  -0.724  -0.722  -0.720  -0.719  -0.712  -0.710  -0.706
 -0.704  -0.703  -0.694  -0.693  -0.692  -0.688  -0.680  -0.672
 -0.666  -0.666  -0.640  -0.639  -0.638  -0.637  -0.622  -0.613
 -0.612  -0.612  -0.611  -0.611  -0.592  -0.588  -0.586  -0.585
 -0.566  -0.563  -0.560  -0.556  -0.542  -0.538  -0.532  -0.532
 -0.531  -0.529  -0.526  -0.523  -0.521  -0.520  -0.520  -0.519
 -0.515  -0.510  -0.507  -0.506  -0.503  -0.502  -0.497  -0.495
 -0.495  -0.494  -0.492  -0.491  -0.489  -0.488  -0.487  -0.484
 -0.479  -0.478  -0.478  -0.476  -0.475  -0.474  -0.474  -0.473
 -0.471  -0.461  -0.460  -0.457  -0.448  -0.447  -0.447  -0.444
 -0.443  -0.442  -0.441  -0.438  -0.437  -0.435  -0.434  -0.430
 -0.429  -0.429  -0.426  -0.424  -0.423  -0.421  -0.420  -0.417
 -0.413  -0.411  -0.409  -0.408  -0.405  -0.403  -0.402  -0.401
 -0.399  -0.397  -0.396  -0.393  -0.392  -0.390  -0.389  -0.382
 -0.379  -0.377  -0.370  -0.369  -0.368  -0.368  -0.366  -0.364
 -0.361  -0.359  -0.357  -0.352  -0.345  -0.314  -0.314  -0.303
 -0.297  -0.295  -0.287  -0.284  -0.284  -0.283  -0.281  -0.279
 -0.278  -0.278  -0.275  -0.244  -0.221  -0.218

          Ground-State Mulliken Net Atomic Charges

     Atom                 Charge (a.u.)
  ----------------------------------------
      1 C                    -0.142369
      2 C                    -0.138462
      3 B                     0.641475
      4 C                    -0.150960
      5 C                    -0.147832
      6 B                     0.649017
      7 C                    -0.282296
      8 C                    -0.209565
      9 C                    -0.214191
     10 C                    -0.288868
     11 C                    -0.362215
     12 C                     0.178695
     13 C                     0.179604
     14 C                    -0.362116
     15 H                     0.237027
     16 C                    -0.208374
     17 C                    -0.203535
     18 C                     0.055910
     19 C                    -0.284034
     20 C                     0.189168
     21 C                    -0.291632
     22 C                     0.075369
     23 C                    -0.541702
     24 C                    -0.560784
     25 H                     0.225249
     26 N                    -0.720443
     27 H                     0.224471
     28 C                     0.071799
     29 C                    -0.323409
     30 C                     0.204393
     31 C                    -0.268813
     32 C                     0.056583
     33 C                    -0.559107
     34 C                    -0.541492
     35 H                     0.226843
     36 N                    -0.707744
     37 H                     0.220793
     38 C                    -0.390108
     39 H                     0.237252
     40 H                     0.239461
     41 H                     0.236144
     42 C                    -0.391669
     43 C                     0.163930
     44 C                     0.162051
     45 C                    -0.279018
     46 C                    -0.277461
     47 H                     0.226349
     48 H                     0.226938
     49 H                     0.213812
     50 H                     0.215434
     51 C                    -0.223395
     52 C                    -0.224338
     53 H                     0.218964
     54 H                     0.227356
     55 H                     0.219575
     56 H                     0.227264
     57 C                    -0.643707
     58 H                     0.261298
     59 H                     0.238521
     60 H                     0.239503
     61 H                     0.221250
     62 H                     0.222512
     63 C                    -0.652469
     64 H                     0.237758
     65 H                     0.260391
     66 H                     0.228894
     67 H                     0.217907
     68 H                     0.243128
     69 C                    -0.641357
     70 H                     0.245467
     71 H                     0.236065
     72 H                     0.228151
     73 H                     0.224046
     74 H                     0.219735
     75 C                    -0.639815
     76 H                     0.232374
     77 H                     0.249096
     78 H                     0.217180
     79 H                     0.223367
     80 H                     0.231651
     81 C                     0.308686
     82 C                     0.141228
     83 C                    -0.297488
     84 C                    -0.231096
     85 C                    -0.226039
     86 C                    -0.292990
     87 H                     0.205766
     88 H                     0.212478
     89 H                     0.210609
     90 H                     0.242122
     91 C                     0.295166
     92 C                     0.145760
     93 C                    -0.288571
     94 C                    -0.294635
     95 C                    -0.225411
     96 C                    -0.231933
     97 C                    -0.217905
     98 H                     0.245332
     99 H                     0.205835
    100 H                     0.211006
    101 H                     0.213723
    102 C                     0.311035
    103 C                     0.142613
    104 C                    -0.300532
    105 C                    -0.290796
    106 C                    -0.227936
    107 C                    -0.228801
    108 H                     0.246646
    109 H                     0.205829
    110 H                     0.209763
    111 H                     0.208164
    112 C                     0.315877
    113 C                     0.142238
    114 C                    -0.308107
    115 C                    -0.291125
    116 C                    -0.227840
    117 C                    -0.230953
    118 H                     0.248519
    119 H                     0.205668
    120 H                     0.210323
    121 H                     0.213655
    122 C                    -0.212509
    123 C                    -0.598875
    124 C                    -0.594520
    125 H                     0.234034
    126 H                     0.215267
    127 H                     0.215656
    128 H                     0.233219
    129 H                     0.215516
    130 H                     0.214961
    131 C                    -0.589062
    132 C                    -0.607722
    133 H                     0.238179
    134 H                     0.216494
    135 H                     0.216934
    136 H                     0.227261
    137 H                     0.216579
    138 H                     0.216765
  ----------------------------------------
  Sum of atomic charges =    -0.000000

                    Cartesian Multipole Moments
 -----------------------------------------------------------------
    Charge (ESU x 10^10)
                -0.0000
    Dipole Moment (Debye)
         X      -1.3022      Y       0.8038      Z       0.4403
       Tot       1.5924
    Quadrupole Moments (Debye-Ang)
        XX    -388.0423     XY     -33.2524     YY    -423.3988
        XZ      -0.6927     YZ      -1.9233     ZZ    -425.6605

 Total job time:  55426.76s(wall), 413254.75s(cpu)
        *  Thank you very much for using Q-Chem.  Have a nice day.  *
