 Q-Chem 5.1, Q-Chem, Inc., Pleasanton, CA (2018)
 Q-Chem 5.1.1 for Intel X86 EM64T Linux

User input:
--------------------------------------------------------------
$rem
threads 8
jobtype	sp
method PBEh-3c
basis def2-mSVP
mem_static	1024
mem_total	10000
sym_ignore	true
cis_n_roots             6
cis_singlets            true
cis_triplets		true
rpa                     false
calc_soc 		true
cis_moments             true
cis_relaxed_density	true
$end

$molecule
read gsopt.mol
$end

--------------------------------------------------------------

             Standard Nuclear Orientation (Angstroms)
    I     Atom           X                Y                Z
 ----------------------------------------------------------------
    1      N       0.0000000000     0.0000000000     0.0000000000
    2      C       0.0000000000     0.0000000000     1.3901790000
    3      C       1.1840712501     0.0000000000    -0.7291770263
    4      C       2.4231494028    -0.0510786201    -0.0820130141
    5      C       3.5746681048    -0.0527459912    -0.8625613500
    6      H       4.5392173878    -0.0926247844    -0.3713596435
    7      C       3.5408834931    -0.0036761481    -2.2433647359
    8      H       4.4595099550    -0.0053684910    -2.8141114672
    9      C       2.3086254753     0.0475240088    -2.8730810837
   10      H       2.2457526828     0.0889063039    -3.9527535597
   11      C       1.1457400078     0.0482978075    -2.1290297870
   12      H       0.1969345353     0.0896664160    -2.6433254354
   13      C       1.2003323333    -0.0570630615     2.1063128716
   14      C       1.1364221629    -0.0658762614     3.4960041571
   15      H       2.0583378294    -0.1132564157     4.0626888435
   16      C      -0.0594016046    -0.0150521271     4.1873027437
   17      H      -0.0671570564    -0.0242771978     5.2687325898
   18      C      -1.2403875847     0.0493014149     3.4664125923
   19      H      -2.1932440417     0.0946289638     3.9773727191
   20      C      -1.2132362871     0.0578231919     2.0860138871
   21      H      -2.1444093832     0.1120588241     1.5409917053
   22      C      -1.2242164987     0.1666516430    -0.7040650392
   23      C      -1.9580147732    -0.9312304255    -1.1137461969
   24      H      -1.6131079997    -1.9240745411    -0.8464957945
   25      C      -1.6562756492     1.4426753250    -1.0237611658
   26      H      -1.0735671110     2.2947767934    -0.6904903651
   27      C      -2.8003976846     1.6320528053    -1.7838507178
   28      C      -3.1093078167    -0.7649347290    -1.8804771206
   29      C      -3.5279481419     0.5208336156    -2.2372100503
   30      C      -3.2461842254     3.0442087786    -2.0652540944
   31      H      -2.3706871734     3.6687479135    -2.2608333556
   32      H      -3.8476817628     3.0920668227    -2.9779509002
   33      C      -3.8490929293    -1.9913348018    -2.3504167487
   34      H      -4.0077223010    -2.6621628999    -1.5013900116
   35      H      -4.8481940059    -1.7208929610    -2.7035984600
   36      C       2.5601817320    -0.1137207592     1.4304101697
   37      C      -3.1098877499    -2.7463649643    -3.4520909454
   38      H      -3.0015884025    -2.1345178012    -4.3477493445
   39      H      -3.6487937559    -3.6509041908    -3.7345196630
   40      H      -2.1111305078    -3.0415767031    -3.1287483673
   41      C      -4.0394499596     3.6330125144    -0.9010039002
   42      H      -4.9464982908     3.0582733911    -0.7140635172
   43      H      -4.3333622899     4.6621751836    -1.1084571099
   44      H      -3.4484007359     3.6309432819     0.0154335983
   45      C       3.4117710325     1.0747694528     1.9099626039
   46      H       2.9403348259     2.0227113680     1.6523025060
   47      H       3.5521474285     1.0530262147     2.9909623842
   48      H       4.4044702638     1.0607629701     1.4591952697
   49      C       3.2600702712    -1.4290056979     1.8159819876
   50      H       2.6826716276    -2.2912580983     1.4833219623
   51      H       3.3870397821    -1.5075330777     2.8965901101
   52      H       4.2518225480    -1.4963386602     1.3666178365
   53      B      -4.7398477603     0.8015175018    -3.2003642669
   54      C      -4.4711630429     0.9615248017    -4.7185534482
   55      C      -3.2680889646     0.5958477261    -5.2533502194
   56      H      -2.4927528399     0.1843733317    -4.6154443003
   57      C      -2.9745341548     0.7550005326    -6.6347984443
   58      C      -1.7507957792     0.3781156652    -7.1687367046
   59      H      -1.0044766747    -0.0702128773    -6.5216139895
   60      C      -1.4562220782     0.5739124819    -8.5159215974
   61      C      -0.2016635358     0.2036156975    -9.0716305040
   62      H       0.5404473421    -0.2517002466    -8.4271049188
   63      C       0.0669378127     0.4188462344   -10.3871713520
   64      H       1.0264078718     0.1356715474   -10.7993202863
   65      C      -0.9052633887     1.0163946266   -11.2288867095
   66      H      -0.6740590103     1.1816189098   -12.2727887374
   67      C      -2.1186919408     1.3806156032   -10.7330366624
   68      H      -2.8588984793     1.8376596487   -11.3780062147
   69      C      -2.4381043133     1.1737854147    -9.3634819339
   70      C      -3.6699680329     1.5448600225    -8.8242581467
   71      H      -4.4129089060     2.0040095813    -9.4667576356
   72      C      -3.9603761121     1.3495044465    -7.4804665111
   73      C      -5.1941849808     1.7549961381    -6.8965219347
   74      H      -5.9206054975     2.2520447001    -7.5312401804
   75      C      -5.4670436433     1.5672470825    -5.5690127528
   76      B      -6.7825816728     2.0902986992    -4.9404378203
   77      C      -6.1739689356     1.0538904004    -2.6584463093
   78      C      -6.5030400613     0.7315027959    -1.3412086893
   79      H      -5.7576604265     0.2670051320    -0.7057199984
   80      C      -7.7629468583     1.0036691318    -0.8304891449
   81      H      -8.0065822995     0.7342060047     0.1893084010
   82      C      -8.7021832301     1.6473767735    -1.6236706141
   83      H      -9.6791443270     1.8839268437    -1.2219304437
   84      C      -8.3819350518     2.0021863798    -2.9254947468
   85      H      -9.1124887233     2.5335096979    -3.5239781019
   86      C      -7.1361131332     1.6920299078    -3.4742481355
   87      C      -7.6821751890     3.1175420746    -5.7136071196
   88      C      -8.9081485905     2.7679748711    -6.2932395611
   89      C      -9.7169742558     3.7509281767    -6.8601943487
   90      H     -10.6824308827     3.4925151231    -7.2806585641
   91      C      -9.3026164601     5.0707244495    -6.8743178627
   92      C      -8.0677541486     5.4096569038    -6.3470376161
   93      H      -7.7520315787     6.4471421794    -6.3721898078
   94      C      -7.2551422828     4.4551651622    -5.7569472530
   95      N     -10.1300578579     6.1153557867    -7.3723044811
   96      C      -9.9730688575     6.5214022207    -8.6962978668
   97      C     -10.7194510824     6.9539636046    -6.4257082516
   98      C     -11.0916473724     8.2593399324    -6.7515579926
   99      C     -11.6466690955     9.0517558946    -5.7505399803
  100      H     -11.9195812838    10.0740658374    -5.9803196307
  101      C     -11.8404165947     8.5939563920    -4.4612915309
  102      H     -12.2653031953     9.2441006734    -3.7086945291
  103      C     -11.4732013640     7.2937742440    -4.1532522654
  104      H     -11.6121862244     6.9055325619    -3.1526895437
  105      C     -10.9228675099     6.4817608040    -5.1233192074
  106      H     -10.6373957368     5.4714722110    -4.8650944247
  107      C     -10.3396322382     7.8079415373    -9.0994225735
  108      C     -10.1515582103     8.1540161151   -10.4341792251
  109      H     -10.4124782872     9.1533539986   -10.7587118100
  110      C      -9.6157279084     7.2804368131   -11.3614386588
  111      H      -9.4783126650     7.5902016888   -12.3884546095
  112      C      -9.2474141206     6.0111436926   -10.9455994775
  113      H      -8.8172501037     5.3066333178   -11.6455187217
  114      C      -9.4243269136     5.6348691845    -9.6296141243
  115      H      -9.1243740218     4.6439109805    -9.3187708665
  116      C      -9.3420167246     1.3274129885    -6.3611516268
  117      H     -10.4320242736     1.2659598981    -6.3126124027
  118      H      -8.9712070028     0.7738401456    -5.4939807036
  119      C      -5.9774174682     4.9176161212    -5.1007114382
  120      H      -5.2080709771     4.1441497373    -5.1485337129
  121      H      -5.5753637921     5.7655155272    -5.6609539812
  122      C     -10.8341900736     8.8598245148    -8.1214979527
  123      C      -8.8523589097     0.6447357295    -7.6365016419
  124      H      -7.7631157532     0.6328833612    -7.6820858025
  125      H      -9.1956179378    -0.3889827806    -7.6854160834
  126      H      -9.2176614498     1.1626374385    -8.5240108631
  127      C      -6.1911496850     5.3375473035    -3.6470662652
  128      H      -6.9354744554     6.1308841427    -3.5729359090
  129      H      -6.5354091936     4.5034963060    -3.0347457353
  130      H      -5.2622042772     5.7076889792    -3.2109855624
  131      C     -12.1252794129     9.4985496063    -8.6556322001
  132      H     -12.9102096573     8.7512727669    -8.7669002127
  133      H     -12.4930973333    10.2766579921    -7.9870566356
  134      H     -11.9683197868     9.9704235828    -9.6254788035
  135      C      -9.7447645732     9.9397947517    -7.9813907016
  136      H      -8.8169073766     9.5080873745    -7.6055319679
  137      H      -9.5303315345    10.4099973220    -8.9422930858
  138      H     -10.0543279355    10.7238931587    -7.2886151366
 ----------------------------------------------------------------

   15   -2859.0679723004      6.01e-09  Convergence criterion met
 Total energy in the final basis set =    -2859.0679723004

         TDDFT/TDA Excitation Energies
 ---------------------------------------------------

 Excited state   1: excitation energy (eV) =    2.0964
 Total energy for state  1:                 -2858.99093039 au
    Multiplicity: Triplet
    Trans. Mom.:  0.0000 X   0.0000 Y   0.0000 Z
    Strength   :     0.0000000000
    D(252) --> V(  2) amplitude =  0.9227

 Excited state   2: excitation energy (eV) =    2.6710
 Total energy for state  2:                 -2858.96981438 au
    Multiplicity: Triplet
    Trans. Mom.:  0.0000 X   0.0000 Y   0.0000 Z
    Strength   :     0.0000000000
    D(252) --> V(  1) amplitude =  0.9211

 Excited state   3: excitation energy (eV) =    3.0580
 Total energy for state  3:                 -2858.95559184 au
    Multiplicity: Triplet
    Trans. Mom.:  0.0000 X   0.0000 Y   0.0000 Z
    Strength   :     0.0000000000
    D(254) --> V(  1) amplitude =  0.9633
    D(254) --> V(  2) amplitude =  0.2627

 Excited state   4: excitation energy (eV) =    3.0586
 Total energy for state  4:                 -2858.95557142 au
    Multiplicity: Singlet
    Trans. Mom.:  0.0123 X  -0.0033 Y   0.0133 Z
    Strength   :     0.0000254114
    D(254) --> V(  1) amplitude =  0.9636
    D(254) --> V(  2) amplitude =  0.2623

 Excited state   5: excitation energy (eV) =    3.0887
 Total energy for state  5:                 -2858.95446475 au
    Multiplicity: Triplet
    Trans. Mom.:  0.0000 X   0.0000 Y   0.0000 Z
    Strength   :     0.0000000000
    D(253) --> V(  1) amplitude =  0.9776

 Excited state   6: excitation energy (eV) =    3.0924
 Total energy for state  6:                 -2858.95432893 au
    Multiplicity: Singlet
    Trans. Mom.: -0.0848 X   0.0867 Y  -0.0362 Z
    Strength   :     0.0012134507
    D(253) --> V(  1) amplitude =  0.9813

 Excited state   7: excitation energy (eV) =    3.3012
 Total energy for state  7:                 -2858.94665578 au
    Multiplicity: Triplet
    Trans. Mom.:  0.0000 X   0.0000 Y   0.0000 Z
    Strength   :     0.0000000000
    D(254) --> V(  1) amplitude = -0.2641
    D(254) --> V(  2) amplitude =  0.9635

 Excited state   8: excitation energy (eV) =    3.3012
 Total energy for state  8:                 -2858.94665382 au
    Multiplicity: Singlet
    Trans. Mom.:  0.0391 X  -0.0091 Y  -0.0249 Z
    Strength   :     0.0001805507
    D(254) --> V(  1) amplitude = -0.2634
    D(254) --> V(  2) amplitude =  0.9633

 Excited state   9: excitation energy (eV) =    3.3266
 Total energy for state  9:                 -2858.94572077 au
    Multiplicity: Singlet
    Trans. Mom.:  1.1224 X  -0.2344 Y  -1.5228 Z
    Strength   :     0.2961368496
    D(243) --> V(  2) amplitude = -0.2828
    D(252) --> V(  1) amplitude =  0.9217

 Excited state  10: excitation energy (eV) =    3.4105
 Total energy for state 10:                 -2858.94263970 au
    Multiplicity: Triplet
    Trans. Mom.:  0.0000 X   0.0000 Y   0.0000 Z
    Strength   :     0.0000000000
    D(253) --> V(  2) amplitude =  0.9840

 Excited state  11: excitation energy (eV) =    3.4107
 Total energy for state 11:                 -2858.94263152 au
    Multiplicity: Singlet
    Trans. Mom.: -0.0194 X  -0.0019 Y   0.0550 Z
    Strength   :     0.0002848552
    D(253) --> V(  2) amplitude =  0.9842

 Excited state  12: excitation energy (eV) =    3.5083
 Total energy for state 12:                 -2858.93904378 au
    Multiplicity: Singlet
    Trans. Mom.:  0.5570 X  -0.3116 Y   0.3349 Z
    Strength   :     0.0446524716
    D(243) --> V(  1) amplitude =  0.2592
    D(252) --> V(  2) amplitude =  0.9299

 ---------------------------------------------------

                    Orbital Energies (a.u.)
 --------------------------------------------------------------

 Alpha MOs
 -- Occupied --
-14.672 -14.669 -10.488 -10.488 -10.487 -10.486 -10.484 -10.484
-10.473 -10.473 -10.471 -10.470 -10.466 -10.465 -10.465 -10.465
-10.464 -10.463 -10.462 -10.462 -10.461 -10.461 -10.461 -10.460
-10.459 -10.459 -10.457 -10.457 -10.457 -10.456 -10.447 -10.447
-10.446 -10.446 -10.445 -10.445 -10.444 -10.443 -10.443 -10.442
-10.442 -10.442 -10.440 -10.440 -10.440 -10.440 -10.440 -10.440
-10.439 -10.439 -10.439 -10.439 -10.438 -10.437 -10.436 -10.436
-10.436 -10.435 -10.434 -10.433 -10.433 -10.433 -10.432 -10.431
-10.429 -10.429 -10.424 -10.424 -10.424 -10.423 -10.422 -10.422
 -6.956  -6.956  -1.085  -1.084  -1.002  -0.972  -0.971  -0.965
 -0.961  -0.954  -0.954  -0.950  -0.949  -0.910  -0.906  -0.904
 -0.897  -0.896  -0.895  -0.871  -0.871  -0.856  -0.852  -0.846
 -0.846  -0.845  -0.835  -0.832  -0.831  -0.827  -0.825  -0.812
 -0.811  -0.808  -0.807  -0.805  -0.789  -0.788  -0.767  -0.765
 -0.741  -0.724  -0.722  -0.720  -0.719  -0.712  -0.710  -0.706
 -0.704  -0.703  -0.694  -0.693  -0.692  -0.688  -0.680  -0.672
 -0.666  -0.666  -0.640  -0.639  -0.638  -0.637  -0.622  -0.613
 -0.612  -0.612  -0.611  -0.611  -0.592  -0.588  -0.586  -0.585
 -0.566  -0.563  -0.560  -0.556  -0.542  -0.538  -0.532  -0.532
 -0.531  -0.529  -0.526  -0.523  -0.521  -0.520  -0.520  -0.519
 -0.515  -0.510  -0.507  -0.506  -0.503  -0.502  -0.497  -0.495
 -0.495  -0.494  -0.492  -0.491  -0.489  -0.488  -0.487  -0.484
 -0.479  -0.478  -0.478  -0.476  -0.476  -0.474  -0.474  -0.473
 -0.471  -0.461  -0.460  -0.457  -0.448  -0.447  -0.447  -0.444
 -0.443  -0.442  -0.441  -0.438  -0.437  -0.435  -0.434  -0.430
 -0.429  -0.429  -0.426  -0.424  -0.423  -0.421  -0.420  -0.417
 -0.413  -0.411  -0.409  -0.408  -0.405  -0.403  -0.402  -0.401
 -0.399  -0.397  -0.396  -0.393  -0.392  -0.390  -0.389  -0.382
 -0.379  -0.377  -0.370  -0.369  -0.368  -0.368  -0.366  -0.364
 -0.361  -0.359  -0.357  -0.352  -0.345  -0.314  -0.314  -0.303
 -0.297  -0.295  -0.287  -0.284  -0.284  -0.283  -0.281  -0.279
 -0.278  -0.278  -0.275  -0.244  -0.221  -0.218

          Ground-State Mulliken Net Atomic Charges

     Atom                 Charge (a.u.)
  ----------------------------------------
      1 N                    -0.720509
      2 C                     0.315964
      3 C                     0.311005
      4 C                     0.142626
      5 C                    -0.290571
      6 H                     0.205744
      7 C                    -0.227885
      8 H                     0.209778
      9 C                    -0.228833
     10 H                     0.208148
     11 C                    -0.300757
     12 H                     0.246615
     13 C                     0.142473
     14 C                    -0.291163
     15 H                     0.205660
     16 C                    -0.227815
     17 H                     0.210288
     18 C                    -0.231012
     19 H                     0.213663
     20 C                    -0.308172
     21 H                     0.248553
     22 C                     0.189531
     23 C                    -0.291504
     24 H                     0.224474
     25 C                    -0.284062
     26 H                     0.225181
     27 C                     0.055949
     28 C                     0.074882
     29 C                    -0.208340
     30 C                    -0.560605
     31 H                     0.238542
     32 H                     0.261196
     33 C                    -0.541582
     34 H                     0.236066
     35 H                     0.245547
     36 C                    -0.212399
     37 C                    -0.641256
     38 H                     0.228129
     39 H                     0.224034
     40 H                     0.219727
     41 C                    -0.643952
     42 H                     0.239571
     43 H                     0.221298
     44 H                     0.222579
     45 C                    -0.598994
     46 H                     0.234070
     47 H                     0.215677
     48 H                     0.215259
     49 C                    -0.594641
     50 H                     0.233213
     51 H                     0.215524
     52 H                     0.214985
     53 B                     0.640898
     54 C                    -0.138251
     55 C                    -0.362457
     56 H                     0.236205
     57 C                     0.179503
     58 C                    -0.390064
     59 H                     0.213798
     60 C                     0.161988
     61 C                    -0.277411
     62 H                     0.218959
     63 C                    -0.224335
     64 H                     0.227366
     65 C                    -0.223430
     66 H                     0.227269
     67 C                    -0.278966
     68 H                     0.219549
     69 C                     0.163866
     70 C                    -0.391599
     71 H                     0.215440
     72 C                     0.178717
     73 C                    -0.362356
     74 H                     0.237102
     75 C                    -0.142484
     76 B                     0.650362
     77 C                    -0.150490
     78 C                    -0.289036
     79 H                     0.237265
     80 C                    -0.214169
     81 H                     0.226917
     82 C                    -0.209574
     83 H                     0.226335
     84 C                    -0.282083
     85 H                     0.239361
     86 C                    -0.148391
     87 C                    -0.203991
     88 C                     0.072206
     89 C                    -0.323311
     90 H                     0.226801
     91 C                     0.204642
     92 C                    -0.269229
     93 H                     0.220859
     94 C                     0.056611
     95 N                    -0.707860
     96 C                     0.309267
     97 C                     0.295631
     98 C                     0.145694
     99 C                    -0.294479
    100 H                     0.205731
    101 C                    -0.225491
    102 H                     0.210966
    103 C                    -0.231893
    104 H                     0.213689
    105 C                    -0.288496
    106 H                     0.245170
    107 C                     0.142002
    108 C                    -0.293791
    109 H                     0.205788
    110 C                    -0.226059
    111 H                     0.210631
    112 C                    -0.231172
    113 H                     0.212462
    114 C                    -0.297498
    115 H                     0.242132
    116 C                    -0.541814
    117 H                     0.232445
    118 H                     0.249180
    119 C                    -0.559189
    120 H                     0.260358
    121 H                     0.237714
    122 C                    -0.218031
    123 C                    -0.639815
    124 H                     0.231652
    125 H                     0.223400
    126 H                     0.217208
    127 C                    -0.652464
    128 H                     0.228886
    129 H                     0.243074
    130 H                     0.217899
    131 C                    -0.607693
    132 H                     0.238083
    133 H                     0.216814
    134 H                     0.216391
    135 C                    -0.589343
    136 H                     0.227253
    137 H                     0.216731
    138 H                     0.216543
  ----------------------------------------
  Sum of atomic charges =    -0.000000

                    Cartesian Multipole Moments
 -----------------------------------------------------------------
    Charge (ESU x 10^10)
                -0.0000
    Dipole Moment (Debye)
         X       0.6203      Y      -0.7623      Z      -1.2520
       Tot       1.5917
    Quadrupole Moments (Debye-Ang)
        XX    -433.7721     XY       6.2575     YY    -432.6027
        XZ     -20.4067     YZ       2.9095     ZZ    -395.4502

 Total job time:  16964.84s(wall), 65925.92s(cpu)
        *  Thank you very much for using Q-Chem.  Have a nice day.  *
