 Q-Chem 5.1, Q-Chem, Inc., Pleasanton, CA (2018)
 Q-Chem 5.1.1 for Intel X86 EM64T Linux

User input:
--------------------------------------------------------------
$rem
threads 8
jobtype	opt
method PBEh-3c
basis def2-mSVP
mem_static	1024
mem_total	10000
sym_ignore	true
cis_n_roots             2
cis_singlets            true
cis_triplets		false
rpa                     false
cis_state_deriv         1
$end

$molecule
read incoords.mol
$end

--------------------------------------------------------------

   15   -2858.9679556809      6.90e-09  Convergence criterion met
 Total energy in the final basis set =    -2858.9679556809
   12   -2859.0208301583      6.63e-09  Convergence criterion met
 Total energy in the final basis set =    -2859.0208301583
   12   -2859.0484567712      7.60e-09  Convergence criterion met
 Total energy in the final basis set =    -2859.0484567712
   12   -2859.0580797138      8.96e-09  Convergence criterion met
 Total energy in the final basis set =    -2859.0580797138
   12   -2859.0607948708      6.37e-09  Convergence criterion met
 Total energy in the final basis set =    -2859.0607948708
   12   -2859.0620351918      5.04e-09  Convergence criterion met
 Total energy in the final basis set =    -2859.0620351918
   12   -2859.0625958546      5.03e-09  Convergence criterion met
 Total energy in the final basis set =    -2859.0625958546
   11   -2859.0632496865      7.23e-09  Convergence criterion met
   10   -2859.0642630478      6.14e-09  Convergence criterion met
 Total energy in the final basis set =    -2859.0642630478
   10   -2859.0645640766      5.24e-09  Convergence criterion met
 Total energy in the final basis set =    -2859.0645640766
    9   -2859.0643868951      8.13e-09  Convergence criterion met
 Total energy in the final basis set =    -2859.0643868951
    9   -2859.0643958593      6.30e-09  Convergence criterion met
 Total energy in the final basis set =    -2859.0643958593
    9   -2859.0644300697      3.31e-09  Convergence criterion met
 Total energy in the final basis set =    -2859.0644300697
    8   -2859.0644572959      7.94e-09  Convergence criterion met
 Total energy in the final basis set =    -2859.0644572959

             Standard Nuclear Orientation (Angstroms)
    I     Atom           X                Y                Z
 ----------------------------------------------------------------
    1      C      -7.5053648781     4.4147585205     2.5125895816
    2      C      -8.1896053984     3.1691864316     2.8156573926
    3      B      -7.3688110275     1.9187251315     3.1462795606
    4      C      -5.8580607481     2.0135301083     3.2812963052
    5      C      -5.1771270038     3.2366670158     2.9706506000
    6      B      -5.9611743152     4.4655515215     2.5061376745
    7      C      -3.7700163194     3.2546463498     3.0506394062
    8      C      -3.0405484381     2.1549106746     3.4394904243
    9      C      -3.7074382993     0.9584543064     3.7510385002
   10      C      -5.0764923407     0.8980014169     3.6609498576
   11      C      -8.2519229427     5.5231878250     2.1845748324
   12      C      -9.6657779844     5.5095487932     2.1366672283
   13      C     -10.3424988551     4.2804208386     2.4331954236
   14      C      -9.5723894100     3.1489475789     2.7539503781
   15      H      -7.7459627886     6.4509700481     1.9349178951
   16      C      -8.1226337679     0.5132775948     3.1860925798
   17      C      -5.2033403606     5.7129660961     1.8938818452
   18      C      -8.4024712911    -0.1229157283     1.9626000101
   19      C      -9.1410560175    -1.2990580148     1.9337987780
   20      C      -9.5896523347    -1.8449591522     3.1187900971
   21      C      -9.3062796341    -1.2668499816     4.3384487656
   22      C      -8.5675044131    -0.0859712587     4.3739630334
   23      C      -8.3232214261     0.5617066168     5.7103096664
   24      C      -7.8976708289     0.4227740508     0.6526763847
   25      H      -9.3760736673    -1.7772950718     0.9889173822
   26      N     -10.4165604324    -3.0267179875     3.0622098953
   27      H      -9.6708365960    -1.7176439311     5.2550861783
   28      C      -4.5495385910     6.6680951660     2.6865366969
   29      C      -3.7939372918     7.6776885140     2.0943179148
   30      C      -3.6986366188     7.7598663380     0.7165549350
   31      C      -4.3833256722     6.8547737027    -0.0747027392
   32      C      -5.1240367329     5.8286825635     0.4954168221
   33      C      -5.7484120460     4.8099441277    -0.4265276044
   34      C      -4.6740681526     6.6350314809     4.1872948536
   35      H      -3.2578601906     8.3930632561     2.7080214518
   36      N      -2.8476777316     8.7108079912     0.0857968661
   37      H      -4.3000321328     6.9307549752    -1.1537276634
   38      C     -11.7400460439     4.2504081196     2.3830568562
   39      H      -5.5743072251    -0.0397147298     3.8869682449
   40      H      -3.2442979186     4.1675699815     2.7930956800
   41      H     -10.1071987096     2.2259024216     2.9593227622
   42      C     -10.4167400609     6.6333654553     1.7964559536
   43      C     -11.8047244774     6.5964108258     1.7402599377
   44      C     -12.4829209039     5.3693240168     2.0462260068
   45      C     -12.5835981583     7.7343926220     1.3864261021
   46      C     -13.9079742343     5.3483586871     1.9879226730
   47      H      -1.9607144654     2.2060722429     3.4973220180
   48      H      -3.1404088080     0.0858545917     4.0518682687
   49      H     -12.2547983129     3.3231487250     2.6142785167
   50      H      -9.9009832669     7.5595176764     1.5661621172
   51      C     -13.9401982745     7.6719383729     1.3385582556
   52      C     -14.6126955661     6.4569219323     1.6462999587
   53      H     -14.4226909090     4.4240249409     2.2236997742
   54      H     -15.6939419830     6.4231716852     1.6066027057
   55      H     -12.0704923021     8.6596742306     1.1529239646
   56      H     -14.5171880835     8.5461388573     1.0673728129
   57      C      -6.5229717313    -0.1362696552     0.2926668408
   58      H      -7.8465228004     1.5100522561     0.6995079318
   59      H      -8.6092547538     0.1801554156    -0.1418421005
   60      H      -5.7863969819     0.1226824745     1.0519540009
   61      H      -6.1776809255     0.2748459840    -0.6563196368
   62      H      -6.5463218827    -1.2235275010     0.1971376988
   63      C      -4.8096269329     3.6398742275    -0.7153760305
   64      H      -6.0182450047     5.2952332823    -1.3686444658
   65      H      -6.6793976119     4.4294810610    -0.0043549091
   66      H      -3.8810966744     3.9831884141    -1.1738015875
   67      H      -5.2766880441     2.9267746320    -1.3974645366
   68      H      -4.5536719576     3.1079591574     0.2006542244
   69      C      -9.4563255049     1.5084096357     6.1006199591
   70      H      -7.3831242075     1.1135371892     5.6838568431
   71      H      -8.2118271424    -0.2107213794     6.4764571990
   72      H      -9.5452005016     2.3213441822     5.3820300150
   73      H      -9.2729075904     1.9490417572     7.0806309991
   74      H     -10.4144426942     0.9868504365     6.1425912874
   75      C      -5.9477816673     7.3233470408     4.6730559634
   76      H      -3.8050976751     7.1219692562     4.6375992013
   77      H      -4.6665955229     5.6019336340     4.5411090174
   78      H      -5.9894622028     8.3588259481     4.3317582801
   79      H      -6.0006560021     7.3263700620     5.7627049578
   80      H      -6.8358225494     6.8124828839     4.3011957240
   81      C      -3.3453506091     9.9581174826    -0.2623071165
   82      C      -2.6253654471    10.8074584788    -1.1086803538
   83      C      -4.5915937235    10.3684303594     0.2282002523
   84      C      -5.1115664778    11.6029193804    -0.1026931891
   85      C      -4.4035137571    12.4592018902    -0.9307390625
   86      C      -3.1778762658    12.0456180940    -1.4199101929
   87      H      -2.6372080906    12.7070809834    -2.0854375045
   88      H      -6.0784020091    11.8911173637     0.2894273706
   89      H      -4.8016618260    13.4281045942    -1.1999611756
   90      H      -5.1596774022     9.7090117745     0.8688987057
   91      C      -1.6069003085     8.2698763958    -0.3604575912
   92      C      -0.8336007421     9.0534365346    -1.2214457696
   93      C      -1.1274051378     7.0179796990     0.0491021739
   94      C       0.3917434527     8.5488787189    -1.6472214767
   95      C       0.8659135167     7.3123369006    -1.2508758285
   96      C       0.0912636107     6.5473036131    -0.3938179199
   97      C      -1.3146477785    10.3911531484    -1.7559201013
   98      H      -1.7164604780     6.4031774077     0.7140054141
   99      H       0.9930711267     9.1373439538    -2.3293321384
  100      H       1.8202895143     6.9512436196    -1.6096214598
  101      H       0.4315028455     5.5736930520    -0.0653672337
  102      C     -11.7528152247    -2.8680110260     2.8021857210
  103      C     -12.6023726727    -3.9913738700     2.7142686051
  104      C     -12.2760612111    -1.5677522298     2.6269340175
  105      C     -13.9408774065    -3.7723840781     2.4353406944
  106      C     -14.4495755867    -2.4984783422     2.2473200864
  107      C     -13.6068852473    -1.3936876361     2.3484397741
  108      H     -11.6285446552    -0.7095920438     2.7092557111
  109      H     -14.6144043878    -4.6155918950     2.3626221211
  110      H     -15.4996502861    -2.3655410698     2.0283867055
  111      H     -13.9963802417    -0.3956895571     2.2110994942
  112      C      -9.8381294570    -4.2549529892     3.2420813379
  113      C     -10.6205368929    -5.4289887511     3.1982545980
  114      C      -8.4461662718    -4.3360254296     3.4602738002
  115      C      -9.9816835516    -6.6406378220     3.4006970714
  116      C      -8.6180053789    -6.7182613035     3.6293826944
  117      C      -7.8505535690    -5.5557313189     3.6523259246
  118      H      -7.8513153510    -3.4364608903     3.4716840292
  119      H     -10.5567425089    -7.5566191746     3.3774440431
  120      H      -8.1526325557    -7.6819057462     3.7816856323
  121      H      -6.7843247418    -5.6088126563     3.8173203328
  122      C     -12.1045113970    -5.3996584443     2.9279793131
  123      C     -12.3982103275    -6.2342086471     1.6638316897
  124      C     -12.8458162957    -6.0105382107     4.1355454862
  125      H     -11.8860941597    -5.8271467684     0.7930069583
  126      H     -13.4655935775    -6.2552090066     1.4489216375
  127      H     -12.0758110685    -7.2663883663     1.7937398054
  128      H     -12.6581676759    -5.4406923944     5.0445989275
  129      H     -12.5271799102    -7.0378715282     4.3085223571
  130      H     -13.9214235112    -6.0282713540     3.9643381361
  131      C      -1.5456918970    10.2525732659    -3.2719153560
  132      C      -0.2476647039    11.4633589327    -1.4892835281
  133      H      -0.0757153760    11.5775837196    -0.4194058017
  134      H      -0.5465545340    12.4326869484    -1.8885255141
  135      H       0.7024000727    11.2068196886    -1.9579182056
  136      H      -2.3049345464     9.4980617495    -3.4782323751
  137      H      -0.6298957056     9.9546641270    -3.7847742777
  138      H      -1.8812372568    11.1941817147    -3.7094381450
 ----------------------------------------------------------------

    8   -2859.0644543845      4.39e-09  Convergence criterion met
 Total energy in the final basis set =    -2859.0644543845

         TDDFT/TDA Excitation Energies
 ---------------------------------------------------

 Excited state   1: excitation energy (eV) =    2.6109
 Total energy for state  1:                 -2858.96850631 au
    Multiplicity: Singlet
    Trans. Mom.: -0.0250 X  -0.0605 Y   0.0037 Z
    Strength   :     0.0002752799
    D(254) --> V(  1) amplitude =  0.9912

 Excited state   2: excitation energy (eV) =    2.7833
 Total energy for state  2:                 -2858.96217043 au
    Multiplicity: Singlet
    Trans. Mom.: -0.0647 X  -0.0718 Y   0.0393 Z
    Strength   :     0.0007420331
    D(253) --> V(  1) amplitude =  0.9889

 ---------------------------------------------------

 Final energy is   -2858.96850631416
 **  OPTIMIZATION CONVERGED  **

                    Orbital Energies (a.u.)
 --------------------------------------------------------------

 Alpha MOs
 -- Occupied --
-14.672 -14.672 -10.488 -10.488 -10.488 -10.487 -10.485 -10.485
-10.476 -10.475 -10.473 -10.473 -10.469 -10.468 -10.467 -10.466
-10.465 -10.465 -10.465 -10.464 -10.464 -10.464 -10.463 -10.463
-10.461 -10.460 -10.460 -10.459 -10.458 -10.458 -10.446 -10.446
-10.446 -10.446 -10.446 -10.446 -10.444 -10.444 -10.444 -10.444
-10.442 -10.442 -10.441 -10.441 -10.440 -10.440 -10.440 -10.439
-10.439 -10.439 -10.439 -10.438 -10.438 -10.437 -10.436 -10.436
-10.435 -10.435 -10.434 -10.433 -10.432 -10.432 -10.431 -10.430
-10.428 -10.427 -10.425 -10.424 -10.423 -10.423 -10.421 -10.421
 -6.956  -6.954  -1.089  -1.086  -1.003  -0.972  -0.971  -0.965
 -0.962  -0.954  -0.951  -0.949  -0.948  -0.911  -0.905  -0.903
 -0.897  -0.897  -0.896  -0.873  -0.872  -0.858  -0.854  -0.849
 -0.846  -0.845  -0.835  -0.831  -0.831  -0.825  -0.824  -0.812
 -0.812  -0.809  -0.809  -0.805  -0.788  -0.784  -0.766  -0.765
 -0.743  -0.726  -0.720  -0.720  -0.719  -0.713  -0.710  -0.707
 -0.706  -0.704  -0.696  -0.694  -0.693  -0.687  -0.681  -0.672
 -0.666  -0.664  -0.639  -0.639  -0.638  -0.637  -0.625  -0.614
 -0.612  -0.611  -0.611  -0.611  -0.594  -0.588  -0.585  -0.585
 -0.568  -0.564  -0.562  -0.556  -0.545  -0.539  -0.533  -0.532
 -0.531  -0.530  -0.525  -0.522  -0.521  -0.520  -0.519  -0.518
 -0.515  -0.510  -0.506  -0.506  -0.504  -0.502  -0.497  -0.496
 -0.495  -0.495  -0.492  -0.491  -0.490  -0.489  -0.487  -0.485
 -0.480  -0.479  -0.478  -0.475  -0.475  -0.475  -0.473  -0.472
 -0.470  -0.461  -0.460  -0.457  -0.450  -0.448  -0.447  -0.444
 -0.444  -0.442  -0.441  -0.439  -0.439  -0.434  -0.434  -0.432
 -0.431  -0.429  -0.425  -0.424  -0.424  -0.421  -0.420  -0.418
 -0.412  -0.411  -0.409  -0.408  -0.405  -0.404  -0.402  -0.401
 -0.398  -0.397  -0.395  -0.392  -0.392  -0.390  -0.389  -0.385
 -0.379  -0.378  -0.369  -0.369  -0.369  -0.368  -0.365  -0.364
 -0.362  -0.360  -0.359  -0.357  -0.343  -0.317  -0.316  -0.307
 -0.296  -0.294  -0.287  -0.285  -0.284  -0.282  -0.282  -0.279
 -0.279  -0.278  -0.278  -0.246  -0.218  -0.212

          Ground-State Mulliken Net Atomic Charges

     Atom                 Charge (a.u.)
  ----------------------------------------
      1 C                    -0.149831
      2 C                    -0.139913
      3 B                     0.627939
      4 C                    -0.141999
      5 C                    -0.143623
      6 B                     0.643742
      7 C                    -0.277151
      8 C                    -0.210244
      9 C                    -0.212544
     10 C                    -0.280457
     11 C                    -0.364172
     12 C                     0.176821
     13 C                     0.187507
     14 C                    -0.368670
     15 H                     0.241280
     16 C                    -0.206809
     17 C                    -0.207459
     18 C                     0.044648
     19 C                    -0.279042
     20 C                     0.165178
     21 C                    -0.274108
     22 C                     0.060504
     23 C                    -0.542216
     24 C                    -0.553428
     25 H                     0.229462
     26 N                    -0.706036
     27 H                     0.228077
     28 C                     0.067848
     29 C                    -0.306294
     30 C                     0.190035
     31 C                    -0.273920
     32 C                     0.049871
     33 C                    -0.554607
     34 C                    -0.540969
     35 H                     0.226578
     36 N                    -0.716818
     37 H                     0.224235
     38 C                    -0.389875
     39 H                     0.241751
     40 H                     0.242235
     41 H                     0.242694
     42 C                    -0.389048
     43 C                     0.163981
     44 C                     0.166494
     45 C                    -0.277174
     46 C                    -0.275561
     47 H                     0.229845
     48 H                     0.229826
     49 H                     0.214290
     50 H                     0.215867
     51 C                    -0.223393
     52 C                    -0.223859
     53 H                     0.219550
     54 H                     0.228529
     55 H                     0.220006
     56 H                     0.228872
     57 C                    -0.644132
     58 H                     0.258809
     59 H                     0.235950
     60 H                     0.241853
     61 H                     0.219601
     62 H                     0.220707
     63 C                    -0.647789
     64 H                     0.235937
     65 H                     0.258000
     66 H                     0.223921
     67 H                     0.218375
     68 H                     0.243359
     69 C                    -0.648801
     70 H                     0.244682
     71 H                     0.233923
     72 H                     0.240024
     73 H                     0.222897
     74 H                     0.219713
     75 C                    -0.645798
     76 H                     0.232674
     77 H                     0.247292
     78 H                     0.218250
     79 H                     0.223048
     80 H                     0.237738
     81 C                     0.318303
     82 C                     0.139640
     83 C                    -0.307191
     84 C                    -0.230360
     85 C                    -0.228233
     86 C                    -0.291092
     87 H                     0.205739
     88 H                     0.211880
     89 H                     0.210179
     90 H                     0.244860
     91 C                     0.305401
     92 C                     0.143967
     93 C                    -0.297050
     94 C                    -0.292733
     95 C                    -0.227188
     96 C                    -0.231179
     97 C                    -0.213489
     98 H                     0.248692
     99 H                     0.205903
    100 H                     0.210368
    101 H                     0.212557
    102 C                     0.304009
    103 C                     0.140871
    104 C                    -0.299041
    105 C                    -0.289654
    106 C                    -0.234324
    107 C                    -0.226227
    108 H                     0.249403
    109 H                     0.206322
    110 H                     0.207308
    111 H                     0.206452
    112 C                     0.308416
    113 C                     0.141191
    114 C                    -0.305266
    115 C                    -0.290172
    116 C                    -0.234460
    117 C                    -0.228211
    118 H                     0.251119
    119 H                     0.205950
    120 H                     0.207973
    121 H                     0.212587
    122 C                    -0.210641
    123 C                    -0.598021
    124 C                    -0.595825
    125 H                     0.234222
    126 H                     0.214784
    127 H                     0.215424
    128 H                     0.233268
    129 H                     0.215078
    130 H                     0.214872
    131 C                    -0.590707
    132 C                    -0.604364
    133 H                     0.236449
    134 H                     0.215767
    135 H                     0.216261
    136 H                     0.229728
    137 H                     0.215957
    138 H                     0.215853
  ----------------------------------------
  Sum of atomic charges =    -0.000000

                    Cartesian Multipole Moments
 -----------------------------------------------------------------
    Charge (ESU x 10^10)
                -0.0000
    Dipole Moment (Debye)
         X      -1.1530      Y       1.1881      Z       0.3791
       Tot       1.6984
    Quadrupole Moments (Debye-Ang)
        XX    -387.2711     XY     -36.7172     YY    -423.8474
        XZ      -0.5296     YZ      -1.9542     ZZ    -432.1663

 Total job time:  89697.44s(wall), 623778.93s(cpu)
        *  Thank you very much for using Q-Chem.  Have a nice day.  *
