 Q-Chem 5.0, Q-Chem, Inc., Pleasanton, CA (2017)
 Q-Chem 5.0.1 for Intel X86 EM64T Linux

User input:
--------------------------------------------------------------
$rem
threads 8
jobtype	sp
method PBEh-3c
basis def2-mSVP
mem_static	1024
mem_total	8000
sym_ignore	true
unrestricted true
scf_convergence	9
solvent_method	pcm
$end

$molecule
read incoords.mol
$end

$solvent
dielectric	2.03
$end

$pcm
theory iefpcm
$end
--------------------------------------------------------------

   17   -2280.7139888720      4.91E-10 Convergence criterion met
 Total energy in the final basis set = -2280.71398887
 Total job time:  2304.95s(wall), 6816.51s(cpu)
        *  Thank you very much for using Q-Chem.  Have a nice day.  *
 Q-Chem 5.0, Q-Chem, Inc., Pleasanton, CA (2017)
 Q-Chem 5.0.1 for Intel X86 EM64T Linux

User input:
--------------------------------------------------------------

$rem
threads 8
jobtype opt
method PBEh-3c
basis def2-mSVP
scf_guess	read
mem_static      1024
mem_total       8000
sym_ignore      true
unrestricted true
mom_start       1
scf_algorithm	diis
scf_max_cycles	250
solvent_method	pcm
geom_opt_tol_energy 25
geom_opt_tol_gradient 75
$end

$solvent
dielectric      2.03
$end
$pcm
theory iefpcm
$end

$occupied
1 2 3 4 5 6 7 8 9 10 11 12 13 14 15 16 17 18 19 20 21 22 23 24 25 26 27 28 29 30 31 32 33 34 35 36 37 38 39 40 41 42 43 44 45 46 47 48 49 50 51 52 53 54 55 56 57 58 59 60 61 62 63 64 65 66 67 68 69 70 71 72 73 74 75 76 77 78 79 80 81 82 83 84 85 86 87 88 89 90 91 92 93 94 95 96 97 98 99 100 101 102 103 104 105 106 107 108 109 110 111 112 113 114 115 116 117 118 119 120 121 122 123 124 125 126 127 128 129 130 131 132 133 134 135 136 137 138 139 140 141 142 143 144 145 146 147 148 149 150 151 152 153 154 155 156 157 158 159 160 161 162 163 164 165 166 167 168 169 170 171 172 173 174 175 176 177 178 179 180 181 182 183 184 185 186 187 188 189 190 191 192 193 194 195 196 197  199
1 2 3 4 5 6 7 8 9 10 11 12 13 14 15 16 17 18 19 20 21 22 23 24 25 26 27 28 29 30 31 32 33 34 35 36 37 38 39 40 41 42 43 44 45 46 47 48 49 50 51 52 53 54 55 56 57 58 59 60 61 62 63 64 65 66 67 68 69 70 71 72 73 74 75 76 77 78 79 80 81 82 83 84 85 86 87 88 89 90 91 92 93 94 95 96 97 98 99 100 101 102 103 104 105 106 107 108 109 110 111 112 113 114 115 116 117 118 119 120 121 122 123 124 125 126 127 128 129 130 131 132 133 134 135 136 137 138 139 140 141 142 143 144 145 146 147 148 149 150 151 152 153 154 155 156 157 158 159 160 161 162 163 164 165 166 167 168 169 170 171 172 173 174 175 176 177 178 179 180 181 182 183 184 185 186 187 188 189 190 191 192 193 194 195 196 197 198
$end

$molecule
read
$end

--------------------------------------------------------------

   21   -2280.6290025101      8.35E-09 Convergence criterion met
 Total energy in the final basis set = -2280.62900251
   16   -2280.6306176303      9.88E-09 Convergence criterion met
 Total energy in the final basis set = -2280.63061763
   17   -2280.6306920220      6.81E-09 Convergence criterion met
 Total energy in the final basis set = -2280.63069202
   17   -2280.6311867850      6.27E-09 Convergence criterion met
 Total energy in the final basis set = -2280.63118679
   16   -2280.6315338990      8.70E-09 Convergence criterion met
 Total energy in the final basis set = -2280.63153390
   16   -2280.6315504334      8.55E-09 Convergence criterion met
 Total energy in the final basis set = -2280.63155043
   16   -2280.6316433624      8.38E-09 Convergence criterion met
   16   -2280.6316348261      6.82E-09 Convergence criterion met
 Total energy in the final basis set = -2280.63163483
   16   -2280.6316476621      6.86E-09 Convergence criterion met
 Total energy in the final basis set = -2280.63164766
   16   -2280.6316516016      6.80E-09 Convergence criterion met
 Total energy in the final basis set = -2280.63165160
   16   -2280.6316511486      6.93E-09 Convergence criterion met
 Total energy in the final basis set = -2280.63165115
   16   -2280.6316518310      7.20E-09 Convergence criterion met
 Total energy in the final basis set = -2280.63165183
   16   -2280.6316529365      7.05E-09 Convergence criterion met
 Total energy in the final basis set = -2280.63165294

             Standard Nuclear Orientation (Angstroms)
    I     Atom           X                Y                Z
 ----------------------------------------------------------------
    1      C       0.0237646685    -0.4039072084     0.0777081958
    2      C       0.0197652454    -0.3905064087     1.4890249478
    3      H       0.9677570213    -0.4023823374     2.0169896772
    4      C      -1.1618126605    -0.3590962117     2.1949255468
    5      C      -2.3998691812    -0.3340878634     1.4877267039
    6      C      -2.4235318387    -0.3433451441     0.1189621830
    7      H      -3.3803832189    -0.3200430249    -0.3963047788
    8      C      -1.2221178004    -0.3787898744    -0.6214241364
    9      C      -1.4710757827    -0.3413178729     3.6251845497
   10      C      -0.7426873921    -0.3515100818     4.7877025546
   11      H       0.3397636673    -0.3775612505     4.7827825740
   12      C      -2.8790133192    -0.3071166555     3.7280318349
   13      C      -3.5886227940    -0.2828224055     4.9247317334
   14      C      -3.4873857008    -0.3003601040     2.4581905820
   15      C      -4.8569538248    -0.2668294821     2.3778662222
   16      H      -5.3743382264    -0.2589370919     1.4257966706
   17      C      -1.4363758327    -0.3273931660     6.0212734706
   18      H      -0.8567334417    -0.3357266008     6.9354470148
   19      C      -2.8093577290    -0.2940458028     6.1065979628
   20      H      -3.2918021012    -0.2762839128     7.0761641205
   21      C      -5.6014184514    -0.2416970559     3.5786564971
   22      H      -6.6822856118    -0.2152345951     3.5188637751
   23      C      -5.0009544279    -0.2493541427     4.8172250389
   24      H      -5.6118312338    -0.2291762708     5.7115970368
   25      B      -1.2347530677    -0.3814363138    -2.1478931346
   26      C       0.0694350217    -0.3858421406    -2.9391734255
   27      C       0.0674807769    -0.3847250445    -4.3502733807
   28      H      -0.8716499664    -0.3591570811    -4.8969770423
   29      C       1.2431110917    -0.4183018479    -5.0488547402
   30      C       2.4943206570    -0.4616234772    -4.3674841422
   31      C       2.5146352793    -0.4614486060    -2.9921256397
   32      H       3.4604519537    -0.5018308647    -2.4624395779
   33      C       1.3166976369    -0.4187109428    -2.2471322130
   34      C       1.4977910547    -0.4324060532    -6.4853573430
   35      C       0.7133070894    -0.4079732346    -7.6115460221
   36      H      -0.3676870094    -0.3623758535    -7.5544847726
   37      C       2.8959390473    -0.4895829563    -6.6350869138
   38      C       3.5413425396    -0.5270342994    -7.8690550623
   39      C       3.5479452908    -0.5100257077    -5.3837528499
   40      C       4.9187814855    -0.5720590100    -5.3782402824
   41      H       5.4846027833    -0.5940489207    -4.4554937284
   42      C       1.3429760437    -0.4430911245    -8.8765590192
   43      H       0.7241898266    -0.4234298453    -9.7650318665
   44      C       2.7106574561    -0.5015684085    -9.0161085148
   45      H       3.1520002140    -0.5280445847   -10.0051637901
   46      C       5.6034636502    -0.6105255374    -6.6166362497
   47      H       6.6848049532    -0.6597137183    -6.6034469759
   48      C       4.9546246574    -0.5894416600    -7.8296006369
   49      H       5.5235520141    -0.6220223386    -8.7508740861
   50      B       1.3509944665    -0.4343362902    -0.7066118256
   51      C      -2.6060863721    -0.4132423093    -2.9299141109
   52      C      -3.3493191327     0.7904863139    -3.1797627531
   53      C      -4.5196876753     0.7354747753    -3.8774305662
   54      H      -5.1014396666     1.6291742349    -4.0705001807
   55      C      -5.0062965037    -0.5009757450    -4.3783284617
   56      O      -6.1308731661    -0.4303975882    -5.0386793605
   57      C      -4.2925218841    -1.6944804757    -4.1537494322
   58      H      -4.6557010670    -2.6385148088    -4.5387820009
   59      C      -3.1272061537    -1.6625391044    -3.4365816369
   60      C      -6.7322862124    -1.5972547707    -5.5976603775
   61      H      -7.6431959456    -1.2587396824    -6.0806038209
   62      H      -6.9808172680    -2.3202322580    -4.8203104100
   63      H      -6.0785147236    -2.0575313432    -6.3389651223
   64      C      -2.8237768111     2.1168891661    -2.7196094419
   65      H      -2.2599457185     1.9932603039    -1.7943526093
   66      H      -3.6637404028     2.7775764169    -2.4940191133
   67      C      -2.4117559326    -2.9475230711    -3.1549947727
   68      H      -1.3347260368    -2.7786201103    -3.1418022829
   69      H      -2.6154637498    -3.6574958552    -3.9595465050
   70      C      -1.9341344069     2.7634138385    -3.7817850494
   71      H      -1.0625091788     2.1474549629    -4.0001103029
   72      H      -1.5749657436     3.7310241084    -3.4332676191
   73      H      -2.4809550913     2.9213922730    -4.7123035625
   74      C      -2.8517517215    -3.5506914191    -1.8187765136
   75      H      -2.6259875552    -2.8835315533    -0.9884897450
   76      H      -2.3244968397    -4.4875240602    -1.6430198310
   77      H      -3.9224239322    -3.7580514262    -1.8108040970
   78      C       2.7336778236    -0.4914618232     0.0516198322
   79      C       3.5107511961     0.6582091985     0.2233486052
   80      C       4.7292051303     0.6071042870     0.9014695593
   81      H       5.2961106228     1.5230955523     1.0167650195
   82      C       5.1931599736    -0.5964220704     1.4133525337
   83      O       6.3585361505    -0.7458904230     2.0840630949
   84      C       4.4311708392    -1.7480364149     1.2417296712
   85      H       4.8003195013    -2.6866776263     1.6408214203
   86      C       3.2176138200    -1.7037914190     0.5740554570
   87      C       7.1500087905     0.3925445959     2.3025758612
   88      H       8.0227030092     0.0634741792     2.8632759560
   89      H       7.4903301611     0.8485014090     1.3671170985
   90      H       6.6275341109     1.1554239024     2.8888981577
   91      C       3.0244739940     1.9973598866    -0.2707539604
   92      H       2.4746358423     1.8772198402    -1.2070261782
   93      H       3.8815043923     2.6354912578    -0.5032464825
   94      C       2.4549272970    -2.9908082114     0.3796745910
   95      H       1.3801239949    -2.8047354330     0.4394430417
   96      H       2.6895748692    -3.6785888618     1.1963870297
   97      C       2.7736537383    -3.6675149917    -0.9524425653
   98      H       2.4954118646    -3.0343961465    -1.7949341631
   99      H       3.8391624139    -3.8847403631    -1.0380360495
  100      H       2.2305968935    -4.6089506989    -1.0514595253
  101      C       2.1306901247     2.7044404518     0.7461635453
  102      H       1.2329883022     2.1216131284     0.9528837621
  103      H       2.6531960762     2.8564156211     1.6916730347
  104      H       1.8138986775     3.6808679791     0.3762158466
 ----------------------------------------------------------------

   16   -2280.6316544743      7.10E-09 Convergence criterion met
 Total energy in the final basis set = -2280.63165447
 Final energy is   -2280.63165447434
 **  OPTIMIZATION CONVERGED  **

                    Orbital Energies (a.u.)
 --------------------------------------------------------------

 Alpha MOs
 -- Occupied --
-19.609 -19.512 -10.589 -10.534 -10.513 -10.503 -10.495 -10.494
-10.494 -10.485 -10.476 -10.456 -10.452 -10.450 -10.450 -10.449
-10.449 -10.447 -10.447 -10.447 -10.446 -10.446 -10.446 -10.446
-10.446 -10.445 -10.445 -10.445 -10.445 -10.444 -10.444 -10.438
-10.438 -10.437 -10.437 -10.436 -10.436 -10.434 -10.433 -10.433
-10.431 -10.431 -10.430 -10.430 -10.430 -10.417 -10.416 -10.415
-10.413 -10.413 -10.413 -10.406 -10.405 -10.405 -10.404 -10.395
 -6.908  -6.899  -1.262  -1.168  -1.005  -0.998  -0.998  -0.942
 -0.939  -0.936  -0.932  -0.918  -0.918  -0.908  -0.887  -0.879
 -0.870  -0.859  -0.848  -0.839  -0.836  -0.836  -0.832  -0.831
 -0.817  -0.805  -0.800  -0.795  -0.794  -0.785  -0.783  -0.757
 -0.746  -0.732  -0.717  -0.713  -0.711  -0.703  -0.698  -0.694
 -0.687  -0.672  -0.668  -0.662  -0.662  -0.646  -0.636  -0.635
 -0.627  -0.627  -0.614  -0.613  -0.595  -0.586  -0.578  -0.577
 -0.572  -0.568  -0.567  -0.561  -0.558  -0.555  -0.546  -0.541
 -0.529  -0.526  -0.522  -0.522  -0.521  -0.510  -0.510  -0.506
 -0.502  -0.496  -0.490  -0.488  -0.487  -0.485  -0.484  -0.478
 -0.476  -0.473  -0.473  -0.471  -0.469  -0.468  -0.468  -0.465
 -0.463  -0.462  -0.459  -0.455  -0.450  -0.449  -0.444  -0.441
 -0.439  -0.436  -0.426  -0.425  -0.422  -0.419  -0.416  -0.415
 -0.414  -0.410  -0.404  -0.403  -0.401  -0.398  -0.395  -0.392
 -0.385  -0.384  -0.382  -0.382  -0.381  -0.381  -0.377  -0.373
 -0.371  -0.364  -0.357  -0.356  -0.353  -0.344  -0.341  -0.331
 -0.329  -0.319  -0.318  -0.305  -0.299  -0.284  -0.282  -0.269
 -0.259  -0.251  -0.240  -0.238  -0.232  -0.151

 Beta MOs
 -- Occupied --
-19.614 -19.512 -10.592 -10.534 -10.513 -10.502 -10.502 -10.495
-10.494 -10.485 -10.476 -10.456 -10.452 -10.451 -10.451 -10.448
-10.448 -10.448 -10.447 -10.447 -10.447 -10.446 -10.446 -10.446
-10.446 -10.445 -10.445 -10.444 -10.444 -10.443 -10.443 -10.438
-10.438 -10.436 -10.436 -10.435 -10.435 -10.434 -10.432 -10.432
-10.431 -10.431 -10.431 -10.431 -10.430 -10.417 -10.416 -10.415
-10.414 -10.414 -10.413 -10.405 -10.405 -10.404 -10.404 -10.395
 -6.903  -6.897  -1.273  -1.168  -1.015  -0.998  -0.998  -0.941
 -0.938  -0.936  -0.933  -0.917  -0.917  -0.916  -0.887  -0.879
 -0.870  -0.861  -0.848  -0.843  -0.836  -0.835  -0.831  -0.831
 -0.826  -0.804  -0.799  -0.795  -0.794  -0.784  -0.782  -0.757
 -0.749  -0.735  -0.716  -0.712  -0.710  -0.702  -0.700  -0.694
 -0.686  -0.672  -0.669  -0.662  -0.659  -0.645  -0.638  -0.635
 -0.627  -0.627  -0.617  -0.613  -0.606  -0.596  -0.577  -0.576
 -0.570  -0.568  -0.567  -0.561  -0.558  -0.554  -0.545  -0.542
 -0.530  -0.528  -0.523  -0.521  -0.521  -0.511  -0.510  -0.507
 -0.503  -0.500  -0.492  -0.489  -0.488  -0.484  -0.484  -0.480
 -0.478  -0.476  -0.473  -0.472  -0.468  -0.468  -0.467  -0.465
 -0.464  -0.463  -0.461  -0.457  -0.451  -0.449  -0.446  -0.444
 -0.438  -0.435  -0.427  -0.425  -0.422  -0.418  -0.415  -0.414
 -0.413  -0.410  -0.406  -0.404  -0.402  -0.400  -0.398  -0.396
 -0.392  -0.385  -0.383  -0.381  -0.380  -0.380  -0.377  -0.373
 -0.372  -0.364  -0.357  -0.354  -0.350  -0.343  -0.342  -0.334
 -0.330  -0.327  -0.317  -0.305  -0.299  -0.295  -0.280  -0.280
 -0.259  -0.258  -0.244  -0.238  -0.232  -0.231

          Ground-State Mulliken Net Atomic Charges

     Atom                 Charge (a.u.)    Spin (a.u.)
  --------------------------------------------------------
      1 C                    -0.144062       0.085416
      2 C                    -0.408789      -0.075597
      3 H                     0.232435       0.003116
      4 C                     0.095247       0.112275
      5 C                     0.066009       0.008456
      6 C                    -0.404146       0.012133
      7 H                     0.192266      -0.000627
      8 C                    -0.123840      -0.051923
      9 C                     0.189233      -0.060087
     10 C                    -0.403042       0.085591
     11 H                     0.229428      -0.005024
     12 C                    -0.075251       0.021506
     13 C                     0.240268      -0.034324
     14 C                     0.189656      -0.035540
     15 C                    -0.394943       0.055324
     16 H                     0.211522      -0.003286
     17 C                    -0.213174      -0.052230
     18 H                     0.231486       0.002528
     19 C                    -0.354761       0.076485
     20 H                     0.225128      -0.004553
     21 C                    -0.217144      -0.038386
     22 H                     0.227616       0.001927
     23 C                    -0.349210       0.052110
     24 H                     0.225339      -0.003035
     25 B                     0.498949       0.422045
     26 C                    -0.121783      -0.049547
     27 C                    -0.403517       0.012149
     28 H                     0.191256      -0.000193
     29 C                     0.066370       0.008044
     30 C                     0.095539       0.113480
     31 C                    -0.407322      -0.075498
     32 H                     0.232937       0.003104
     33 C                    -0.147179       0.086141
     34 C                     0.190015      -0.035586
     35 C                    -0.396507       0.055663
     36 H                     0.210087      -0.003315
     37 C                    -0.075337       0.021722
     38 C                     0.239617      -0.034695
     39 C                     0.190181      -0.060312
     40 C                    -0.404546       0.086298
     41 H                     0.228979      -0.005071
     42 C                    -0.216628      -0.038641
     43 H                     0.227224       0.001941
     44 C                    -0.348892       0.052348
     45 H                     0.225414      -0.003046
     46 C                    -0.212692      -0.052583
     47 H                     0.231264       0.002543
     48 C                    -0.354798       0.077221
     49 H                     0.225190      -0.004594
     50 B                     0.556732       0.251723
     51 C                    -0.120367      -0.547242
     52 C                     0.092641       0.094208
     53 C                    -0.356876      -0.119236
     54 H                     0.275817       0.008460
     55 C                     0.465322      -0.218425
     56 O                    -0.393682      -0.135481
     57 C                    -0.416902      -0.020553
     58 H                     0.276701       0.003564
     59 C                     0.103984      -0.021738
     60 C                    -0.442363       0.013633
     61 H                     0.281472       0.000026
     62 H                     0.250984      -0.008929
     63 H                     0.251195      -0.008955
     64 C                    -0.550315       0.001347
     65 H                     0.293814      -0.002506
     66 H                     0.244190       0.001160
     67 C                    -0.553778       0.009875
     68 H                     0.301578      -0.004865
     69 H                     0.243483      -0.000174
     70 C                    -0.659663      -0.001598
     71 H                     0.266898      -0.000446
     72 H                     0.241060       0.000040
     73 H                     0.212898       0.000016
     74 C                    -0.659672      -0.007142
     75 H                     0.272159      -0.000197
     76 H                     0.243833      -0.001113
     77 H                     0.212037       0.000229
     78 C                    -0.197374      -0.026742
     79 C                     0.068415       0.004502
     80 C                    -0.437901      -0.001494
     81 H                     0.227370       0.000349
     82 C                     0.389499       0.001193
     83 O                    -0.464210      -0.000050
     84 C                    -0.391199      -0.001683
     85 H                     0.219342       0.000388
     86 C                     0.066425       0.004574
     87 C                    -0.413399      -0.000005
     88 H                     0.240984       0.000004
     89 H                     0.207765       0.000012
     90 H                     0.208145       0.000004
     91 C                    -0.543305       0.002573
     92 H                     0.257477      -0.001716
     93 H                     0.220263       0.000272
     94 C                    -0.543568       0.002395
     95 H                     0.255279      -0.001697
     96 H                     0.224278       0.000283
     97 C                    -0.654106       0.000222
     98 H                     0.248742      -0.000485
     99 H                     0.215141      -0.000072
    100 H                     0.210480      -0.000015
    101 C                    -0.652406       0.000178
    102 H                     0.249724      -0.000442
    103 H                     0.211456      -0.000078
    104 H                     0.212413      -0.000022
  --------------------------------------------------------
  Sum of atomic charges =    -0.000000

                    Cartesian Multipole Moments
 -----------------------------------------------------------------
    Charge (ESU x 10^10)
                -0.0000
    Dipole Moment (Debye)
         X     -13.8102      Y      -0.8200      Z      -8.4441
       Tot      16.2080
    Quadrupole Moments (Debye-Ang)
        XX    -246.8541     XY      28.0798     YY    -331.6812
        XZ      75.4374     YZ      17.7245     ZZ    -285.3410

 Total job time:  35060.14s(wall), 104436.63s(cpu)
        *  Thank you very much for using Q-Chem.  Have a nice day.  *
