 Q-Chem 5.1, Q-Chem, Inc., Pleasanton, CA (2018)
 Q-Chem 5.1.1 for Intel X86 EM64T Linux

User input:
--------------------------------------------------------------
$rem
threads 8
jobtype	sp
method PBEh-3c
basis def2-mSVP
mem_static	1024
mem_total	8000
sym_ignore	true
unrestricted true
scf_convergence	9
solvent_method	pcm
$end

$molecule
read moms1opt_tol.mol
$end

$solvent
dielectric	4.33
$end

$pcm
theory iefpcm
$end
--------------------------------------------------------------

   16   -2280.7248058315      5.44e-10  Convergence criterion met
 Total energy in the final basis set =    -2280.7248058315
 Total job time:  2848.70s(wall), 21960.15s(cpu)
        *  Thank you very much for using Q-Chem.  Have a nice day.  *
 Q-Chem 5.1, Q-Chem, Inc., Pleasanton, CA (2018)
 Q-Chem 5.1.1 for Intel X86 EM64T Linux

User input:
--------------------------------------------------------------

$rem
threads 8
jobtype opt
method PBEh-3c
basis def2-mSVP
scf_guess	read
mem_static      1024
mem_total       8000
sym_ignore      true
unrestricted true
mom_start       1
scf_algorithm	diis
scf_max_cycles	250
solvent_method	pcm
geom_opt_tol_energy 25
geom_opt_tol_gradient 75
$end

$solvent
dielectric      4.33
$end

$pcm
theory iefpcm
$end

$occupied
1 2 3 4 5 6 7 8 9 10 11 12 13 14 15 16 17 18 19 20 21 22 23 24 25 26 27 28 29 30 31 32 33 34 35 36 37 38 39 40 41 42 43 44 45 46 47 48 49 50 51 52 53 54 55 56 57 58 59 60 61 62 63 64 65 66 67 68 69 70 71 72 73 74 75 76 77 78 79 80 81 82 83 84 85 86 87 88 89 90 91 92 93 94 95 96 97 98 99 100 101 102 103 104 105 106 107 108 109 110 111 112 113 114 115 116 117 118 119 120 121 122 123 124 125 126 127 128 129 130 131 132 133 134 135 136 137 138 139 140 141 142 143 144 145 146 147 148 149 150 151 152 153 154 155 156 157 158 159 160 161 162 163 164 165 166 167 168 169 170 171 172 173 174 175 176 177 178 179 180 181 182 183 184 185 186 187 188 189 190 191 192 193 194 195 196 197  199
1 2 3 4 5 6 7 8 9 10 11 12 13 14 15 16 17 18 19 20 21 22 23 24 25 26 27 28 29 30 31 32 33 34 35 36 37 38 39 40 41 42 43 44 45 46 47 48 49 50 51 52 53 54 55 56 57 58 59 60 61 62 63 64 65 66 67 68 69 70 71 72 73 74 75 76 77 78 79 80 81 82 83 84 85 86 87 88 89 90 91 92 93 94 95 96 97 98 99 100 101 102 103 104 105 106 107 108 109 110 111 112 113 114 115 116 117 118 119 120 121 122 123 124 125 126 127 128 129 130 131 132 133 134 135 136 137 138 139 140 141 142 143 144 145 146 147 148 149 150 151 152 153 154 155 156 157 158 159 160 161 162 163 164 165 166 167 168 169 170 171 172 173 174 175 176 177 178 179 180 181 182 183 184 185 186 187 188 189 190 191 192 193 194 195 196 197 198
$end

$molecule
read
$end

--------------------------------------------------------------

   21   -2280.6460796902      9.07E-09 Convergence criterion met
 Total energy in the final basis set = -2280.64607969
   18   -2280.6460951648      8.70E-09 Convergence criterion met
 Total energy in the final basis set = -2280.64609516
   19   -2280.6460185706      7.80E-09 Convergence criterion met
 Total energy in the final basis set = -2280.64601857
   18   -2280.6461041760      7.82E-09 Convergence criterion met
 Total energy in the final basis set = -2280.64610418
   18   -2280.6461088708      6.91E-09 Convergence criterion met
 Total energy in the final basis set = -2280.64610887
   17   -2280.6461031119      8.68E-09 Convergence criterion met
 Total energy in the final basis set = -2280.64610311
   17   -2280.6461004490      9.67E-09 Convergence criterion met
 Total energy in the final basis set = -2280.64610045
   17   -2280.6460983957      9.37E-09 Convergence criterion met
 Total energy in the final basis set = -2280.64609840
   17   -2280.6460979551      9.31E-09 Convergence criterion met
 Total energy in the final basis set = -2280.64609796

             Standard Nuclear Orientation (Angstroms)
    I     Atom           X                Y                Z
 ----------------------------------------------------------------
    1      C       0.0293270168    -0.4049529882     0.0797110268
    2      C       0.0248032640    -0.3923901950     1.4917896999
    3      H       0.9716541483    -0.4041294146     2.0219461118
    4      C      -1.1570203509    -0.3616849978     2.1973024865
    5      C      -2.3956661416    -0.3371929353     1.4896296412
    6      C      -2.4190045086    -0.3469761129     0.1201686704
    7      H      -3.3753056405    -0.3244341951    -0.3956488425
    8      C      -1.2177104414    -0.3826497490    -0.6197347745
    9      C      -1.4663177200    -0.3437936910     3.6279953579
   10      C      -0.7376123253    -0.3534617443     4.7909792066
   11      H       0.3449640120    -0.3790552637     4.7867158899
   12      C      -2.8745654761    -0.3100444274     3.7302403379
   13      C      -3.5845133861    -0.2856642452     4.9272545229
   14      C      -3.4831204126    -0.3038598620     2.4599610993
   15      C      -4.8532817025    -0.2710755259     2.3792029240
   16      H      -5.3706947024    -0.2638467761     1.4271389286
   17      C      -1.4318063670    -0.3291960012     6.0247067721
   18      H      -0.8522877760    -0.3370664276     6.9390153412
   19      C      -2.8054019626    -0.2963302672     6.1096853700
   20      H      -3.2883367809    -0.2785427511     7.0790539218
   21      C      -5.5976652795    -0.2459360271     3.5805870626
   22      H      -6.6785308140    -0.2201571956     3.5203631930
   23      C      -4.9973833113    -0.2528756616     4.8198524224
   24      H      -5.6081944586    -0.2327591285     5.7143039082
   25      B      -1.2341080431    -0.3852495959    -2.1466166701
   26      C       0.0717549555    -0.3873293184    -2.9363722165
   27      C       0.0675096116    -0.3920138046    -4.3471198684
   28      H      -0.8727147138    -0.3754781768    -4.8916367503
   29      C       1.2427468836    -0.4203898632    -5.0478100487
   30      C       2.4959309807    -0.4519903319    -4.3678829890
   31      C       2.5184431450    -0.4500079915    -2.9924954373
   32      H       3.4664393101    -0.4830616018    -2.4660658240
   33      C       1.3208478282    -0.4143641203    -2.2451298520
   34      C       1.4952861968    -0.4359141041    -6.4844898680
   35      C       0.7082014258    -0.4208136933    -7.6097480799
   36      H      -0.3731034955    -0.3859204437    -7.5512292030
   37      C       2.8941088788    -0.4803591759    -6.6362451674
   38      C       3.5381241191    -0.5129102958    -7.8715848162
   39      C       3.5488208098    -0.4924065242    -5.3858934306
   40      C       4.9208235298    -0.5399266986    -5.3823702467
   41      H       5.4889345420    -0.5539909228    -4.4607481446
   42      C       1.3368659793    -0.4518059078    -8.8758843453
   43      H       0.7162293334    -0.4396798573    -9.7632042026
   44      C       2.7053404125    -0.4969277809    -9.0179227731
   45      H       3.1455840617    -0.5203180688   -10.0075668287
   46      C       5.6038666663    -0.5731547552    -6.6222610593
   47      H       6.6857308967    -0.6107716061    -6.6108297282
   48      C       4.9524039646    -0.5606286882    -7.8346200664
   49      H       5.5198238209    -0.5884050809    -8.7570377987
   50      B       1.3561953931    -0.4321972584    -0.7049193232
   51      C      -2.6072607232    -0.4156790498    -2.9302208028
   52      C      -3.3341636818     0.7910980010    -3.2022732798
   53      C      -4.5021562832     0.7381042461    -3.9040929151
   54      H      -5.0734681966     1.6349308344    -4.1135372129
   55      C      -4.9999068464    -0.5024634251    -4.3880554955
   56      O      -6.1169230726    -0.4312597226    -5.0538729410
   57      C      -4.2991370318    -1.7008974725    -4.1390733986
   58      H      -4.6706606643    -2.6469630187    -4.5111192860
   59      C      -3.1389161155    -1.6672876540    -3.4155755417
   60      C      -6.7314208584    -1.6012378571    -5.6013066881
   61      H      -7.6367104594    -1.2572534261    -6.0902481429
   62      H      -6.9874708194    -2.3094380968    -4.8135929420
   63      H      -6.0780532420    -2.0752982791    -6.3335285323
   64      C      -2.7987982965     2.1212468452    -2.7618256851
   65      H      -2.2199895732     2.0055519397    -1.8447344230
   66      H      -3.6344557837     2.7840091485    -2.5273929555
   67      C      -2.4415366908    -2.9569263255    -3.1049578417
   68      H      -1.3655990574    -2.7937738728    -3.0383448240
   69      H      -2.6087205425    -3.6625121234    -3.9213371442
   70      C      -1.9282708273     2.7603853443    -3.8435648469
   71      H      -1.0618488173     2.1415085886    -4.0748727719
   72      H      -1.5622726411     3.7303681480    -3.5086240824
   73      H      -2.4925555063     2.9117185819    -4.7646017871
   74      C      -2.9497184202    -3.5648574264    -1.7958034803
   75      H      -2.7717487647    -2.8986982801    -0.9527834893
   76      H      -2.4304597826    -4.5010586294    -1.5942881626
   77      H      -4.0187170969    -3.7744584623    -1.8461283927
   78      C       2.7400300016    -0.4911881083     0.0538076156
   79      C       3.5165352957     0.6582017707     0.2335250428
   80      C       4.7346766257     0.6050561761     0.9130290140
   81      H       5.3008787363     1.5207716569     1.0341980713
   82      C       5.1994582276    -0.6010831417     1.4190784748
   83      O       6.3638917012    -0.7525502251     2.0905804077
   84      C       4.4385791251    -1.7528383626     1.2395035605
   85      H       4.8068688395    -2.6943939763     1.6331834659
   86      C       3.2255739602    -1.7059842980     0.5695652370
   87      C       7.1559529755     0.3876443311     2.3160388986
   88      H       8.0280183215     0.0562175782     2.8759839227
   89      H       7.4958654481     0.8473502387     1.3828082310
   90      H       6.6312699903     1.1461771583     2.9051837421
   91      C       3.0306915312     2.0001640669    -0.2535227384
   92      H       2.4766639511     1.8841290009    -1.1878223929
   93      H       3.8876576495     2.6382383227    -0.4858695972
   94      C       2.4662752111    -2.9937244468     0.3660721932
   95      H       1.3908331790    -2.8089920362     0.4169763292
   96      H       2.6956152859    -3.6840203829     1.1821068009
   97      C       2.7964100168    -3.6659992106    -0.9656061003
   98      H       2.5281262878    -3.0278978986    -1.8077072855
   99      H       3.8621260563    -3.8863714797    -1.0415223050
  100      H       2.2514451723    -4.6051988672    -1.0740841213
  101      C       2.1415472246     2.7045970821     0.7693477020
  102      H       1.2454453242     2.1201647605     0.9791548008
  103      H       2.6689047951     2.8557183949     1.7123823777
  104      H       1.8220764860     3.6813125901     0.4026311784
 ----------------------------------------------------------------

   17   -2280.6460928715      9.24E-09 Convergence criterion met
 Total energy in the final basis set = -2280.64609287
 Final energy is   -2280.64609287148
 **  OPTIMIZATION CONVERGED  **

                    Orbital Energies (a.u.)
 --------------------------------------------------------------

 Alpha MOs
 -- Occupied --
-19.602 -19.518 -10.583 -10.521 -10.507 -10.498 -10.492 -10.490
-10.488 -10.487 -10.478 -10.455 -10.455 -10.452 -10.452 -10.452
-10.451 -10.451 -10.451 -10.450 -10.450 -10.450 -10.450 -10.450
-10.450 -10.449 -10.449 -10.449 -10.449 -10.448 -10.448 -10.443
-10.443 -10.442 -10.442 -10.439 -10.439 -10.438 -10.438 -10.437
-10.437 -10.436 -10.435 -10.432 -10.429 -10.423 -10.421 -10.421
-10.420 -10.417 -10.416 -10.411 -10.410 -10.410 -10.410 -10.401
 -6.911  -6.903  -1.254  -1.173  -1.003  -1.002  -0.999  -0.947
 -0.944  -0.942  -0.926  -0.922  -0.922  -0.902  -0.891  -0.884
 -0.876  -0.854  -0.853  -0.841  -0.840  -0.836  -0.835  -0.834
 -0.814  -0.809  -0.804  -0.798  -0.798  -0.790  -0.788  -0.762
 -0.741  -0.728  -0.720  -0.716  -0.715  -0.707  -0.700  -0.693
 -0.691  -0.676  -0.666  -0.665  -0.662  -0.651  -0.640  -0.632
 -0.631  -0.627  -0.619  -0.608  -0.594  -0.582  -0.580  -0.576
 -0.575  -0.573  -0.570  -0.563  -0.562  -0.556  -0.551  -0.533
 -0.529  -0.526  -0.525  -0.524  -0.517  -0.514  -0.513  -0.506
 -0.500  -0.494  -0.493  -0.490  -0.489  -0.488  -0.485  -0.480
 -0.480  -0.476  -0.475  -0.474  -0.474  -0.473  -0.470  -0.467
 -0.465  -0.464  -0.458  -0.453  -0.451  -0.449  -0.446  -0.443
 -0.441  -0.436  -0.429  -0.426  -0.424  -0.423  -0.420  -0.419
 -0.417  -0.413  -0.406  -0.403  -0.402  -0.401  -0.397  -0.391
 -0.390  -0.387  -0.386  -0.386  -0.384  -0.381  -0.380  -0.378
 -0.373  -0.370  -0.361  -0.360  -0.356  -0.350  -0.347  -0.336
 -0.324  -0.323  -0.322  -0.310  -0.304  -0.289  -0.287  -0.274
 -0.265  -0.256  -0.245  -0.243  -0.238  -0.155

 Beta MOs
 -- Occupied --
-19.608 -19.518 -10.586 -10.521 -10.507 -10.498 -10.496 -10.492
-10.490 -10.487 -10.478 -10.456 -10.455 -10.452 -10.452 -10.452
-10.452 -10.451 -10.451 -10.451 -10.451 -10.450 -10.449 -10.449
-10.449 -10.449 -10.448 -10.448 -10.448 -10.447 -10.447 -10.443
-10.442 -10.441 -10.441 -10.439 -10.439 -10.437 -10.437 -10.437
-10.437 -10.436 -10.436 -10.432 -10.429 -10.423 -10.421 -10.421
-10.420 -10.417 -10.417 -10.410 -10.410 -10.410 -10.409 -10.402
 -6.907  -6.901  -1.266  -1.173  -1.009  -1.002  -1.002  -0.946
 -0.943  -0.942  -0.928  -0.921  -0.921  -0.910  -0.890  -0.884
 -0.876  -0.855  -0.854  -0.841  -0.839  -0.837  -0.835  -0.834
 -0.821  -0.809  -0.803  -0.798  -0.798  -0.790  -0.786  -0.762
 -0.745  -0.730  -0.720  -0.715  -0.714  -0.706  -0.699  -0.694
 -0.692  -0.676  -0.666  -0.664  -0.662  -0.649  -0.639  -0.631
 -0.631  -0.630  -0.618  -0.610  -0.597  -0.594  -0.581  -0.580
 -0.574  -0.572  -0.570  -0.563  -0.561  -0.556  -0.550  -0.535
 -0.529  -0.526  -0.525  -0.525  -0.519  -0.514  -0.513  -0.505
 -0.501  -0.498  -0.493  -0.493  -0.489  -0.488  -0.487  -0.480
 -0.480  -0.477  -0.476  -0.473  -0.473  -0.472  -0.471  -0.470
 -0.467  -0.465  -0.460  -0.455  -0.453  -0.449  -0.449  -0.442
 -0.441  -0.440  -0.430  -0.426  -0.425  -0.423  -0.419  -0.416
 -0.415  -0.412  -0.405  -0.405  -0.403  -0.402  -0.400  -0.397
 -0.392  -0.390  -0.386  -0.385  -0.384  -0.384  -0.381  -0.378
 -0.376  -0.370  -0.361  -0.357  -0.356  -0.348  -0.347  -0.335
 -0.330  -0.328  -0.322  -0.305  -0.303  -0.300  -0.285  -0.285
 -0.265  -0.264  -0.248  -0.243  -0.238  -0.236

          Ground-State Mulliken Net Atomic Charges

     Atom                 Charge (a.u.)    Spin (a.u.)
  --------------------------------------------------------
      1 C                    -0.143207       0.077531
      2 C                    -0.412510      -0.068766
      3 H                     0.233274       0.002719
      4 C                     0.087079       0.104130
      5 C                     0.057266       0.020201
      6 C                    -0.407489       0.001849
      7 H                     0.207710      -0.000002
      8 C                    -0.128036      -0.036408
      9 C                     0.181211      -0.058784
     10 C                    -0.408607       0.085045
     11 H                     0.238912      -0.004965
     12 C                    -0.077203       0.022164
     13 C                     0.228107      -0.035525
     14 C                     0.181631      -0.039195
     15 C                    -0.400738       0.060572
     16 H                     0.227261      -0.003559
     17 C                    -0.223972      -0.052346
     18 H                     0.242578       0.002517
     19 C                    -0.360575       0.076459
     20 H                     0.237625      -0.004502
     21 C                    -0.227685      -0.041115
     22 H                     0.240417       0.002033
     23 C                    -0.355440       0.056716
     24 H                     0.237774      -0.003285
     25 B                     0.507223       0.404617
     26 C                    -0.126781      -0.034536
     27 C                    -0.406255       0.001614
     28 H                     0.206912       0.000453
     29 C                     0.057741       0.019847
     30 C                     0.087496       0.104704
     31 C                    -0.411328      -0.068801
     32 H                     0.233779       0.002715
     33 C                    -0.145459       0.078113
     34 C                     0.182049      -0.039082
     35 C                    -0.402181       0.060575
     36 H                     0.226130      -0.003568
     37 C                    -0.077202       0.022215
     38 C                     0.227372      -0.035636
     39 C                     0.182152      -0.058770
     40 C                    -0.410118       0.085191
     41 H                     0.238571      -0.004978
     42 C                    -0.227262      -0.041112
     43 H                     0.240220       0.002033
     44 C                    -0.355002       0.056574
     45 H                     0.237943      -0.003274
     46 C                    -0.223507      -0.052368
     47 H                     0.242438       0.002516
     48 C                    -0.360489       0.076548
     49 H                     0.237802      -0.004505
     50 B                     0.542034       0.261666
     51 C                    -0.126540      -0.558549
     52 C                     0.089183       0.115163
     53 C                    -0.356217      -0.144295
     54 H                     0.286253       0.009613
     55 C                     0.469456      -0.209040
     56 O                    -0.389313      -0.148385
     57 C                    -0.412894      -0.043729
     58 H                     0.292226       0.004632
     59 C                     0.098846       0.004678
     60 C                    -0.449063       0.014454
     61 H                     0.286093       0.000006
     62 H                     0.259290      -0.009500
     63 H                     0.259701      -0.009597
     64 C                    -0.550139      -0.000037
     65 H                     0.286437      -0.002304
     66 H                     0.252017       0.001298
     67 C                    -0.554435       0.008544
     68 H                     0.294360      -0.004445
     69 H                     0.253356      -0.000327
     70 C                    -0.662498      -0.000781
     71 H                     0.258298      -0.000370
     72 H                     0.241820       0.000269
     73 H                     0.218878      -0.000010
     74 C                    -0.661420      -0.006045
     75 H                     0.260780      -0.000068
     76 H                     0.244743      -0.000737
     77 H                     0.218762       0.000193
     78 C                    -0.194732      -0.026933
     79 C                     0.061567       0.004779
     80 C                    -0.444655      -0.001610
     81 H                     0.239387       0.000356
     82 C                     0.384098       0.001649
     83 O                    -0.469907       0.000136
     84 C                    -0.400333      -0.001760
     85 H                     0.226107       0.000392
     86 C                     0.059366       0.004707
     87 C                    -0.421680      -0.000025
     88 H                     0.246914       0.000003
     89 H                     0.213868       0.000025
     90 H                     0.214026       0.000018
     91 C                    -0.542889       0.002608
     92 H                     0.255562      -0.001759
     93 H                     0.225739       0.000294
     94 C                    -0.543607       0.002495
     95 H                     0.254429      -0.001776
     96 H                     0.228669       0.000306
     97 C                    -0.658595       0.000181
     98 H                     0.245731      -0.000480
     99 H                     0.216307      -0.000076
    100 H                     0.216515      -0.000013
    101 C                    -0.657373       0.000160
    102 H                     0.246138      -0.000444
    103 H                     0.213868      -0.000081
    104 H                     0.217839      -0.000018
  --------------------------------------------------------
  Sum of atomic charges =    -0.000000

                    Cartesian Multipole Moments
 -----------------------------------------------------------------
    Charge (ESU x 10^10)
                -0.0000
    Dipole Moment (Debye)
         X     -15.5639      Y      -0.8862      Z      -9.5398
       Tot      18.2765
    Quadrupole Moments (Debye-Ang)
        XX    -236.2051     XY      31.0846     YY    -330.2909
        XZ      82.5542     YZ      19.4242     ZZ    -276.6218

 Total job time:  24999.93s(wall), 135194.92s(cpu)
        *  Thank you very much for using Q-Chem.  Have a nice day.  *
