 Q-Chem 5.0, Q-Chem, Inc., Pleasanton, CA (2017)
 Q-Chem 5.0.1 for Intel X86 EM64T Linux

User input:
--------------------------------------------------------------
$rem
threads 8
jobtype	sp
method PBEh-3c
basis def2-mSVP
mem_static	1024
mem_total	8000
sym_ignore	true
unrestricted true
scf_convergence	9
solvent_method	pcm
$end

$molecule
read incoords.mol
$end

$solvent
dielectric	2.38
$end

$pcm
theory iefpcm
$end
--------------------------------------------------------------

   17   -2280.7161750848      4.60E-10 Convergence criterion met
 Total energy in the final basis set = -2280.71617508
 Total job time:  2578.94s(wall), 7550.41s(cpu)
        *  Thank you very much for using Q-Chem.  Have a nice day.  *
 Q-Chem 5.0, Q-Chem, Inc., Pleasanton, CA (2017)
 Q-Chem 5.0.1 for Intel X86 EM64T Linux

User input:
--------------------------------------------------------------

$rem
threads 8
jobtype opt
method PBEh-3c
basis def2-mSVP
scf_guess	read
mem_static      1024
mem_total       8000
sym_ignore      true
unrestricted true
mom_start       1
scf_algorithm	diis
scf_max_cycles	250
solvent_method	pcm
geom_opt_tol_energy 25
geom_opt_tol_gradient 75
$end

$solvent
dielectric      2.38
$end

$pcm
theory iefpcm
$end

$occupied
1 2 3 4 5 6 7 8 9 10 11 12 13 14 15 16 17 18 19 20 21 22 23 24 25 26 27 28 29 30 31 32 33 34 35 36 37 38 39 40 41 42 43 44 45 46 47 48 49 50 51 52 53 54 55 56 57 58 59 60 61 62 63 64 65 66 67 68 69 70 71 72 73 74 75 76 77 78 79 80 81 82 83 84 85 86 87 88 89 90 91 92 93 94 95 96 97 98 99 100 101 102 103 104 105 106 107 108 109 110 111 112 113 114 115 116 117 118 119 120 121 122 123 124 125 126 127 128 129 130 131 132 133 134 135 136 137 138 139 140 141 142 143 144 145 146 147 148 149 150 151 152 153 154 155 156 157 158 159 160 161 162 163 164 165 166 167 168 169 170 171 172 173 174 175 176 177 178 179 180 181 182 183 184 185 186 187 188 189 190 191 192 193 194 195 196 197  199
1 2 3 4 5 6 7 8 9 10 11 12 13 14 15 16 17 18 19 20 21 22 23 24 25 26 27 28 29 30 31 32 33 34 35 36 37 38 39 40 41 42 43 44 45 46 47 48 49 50 51 52 53 54 55 56 57 58 59 60 61 62 63 64 65 66 67 68 69 70 71 72 73 74 75 76 77 78 79 80 81 82 83 84 85 86 87 88 89 90 91 92 93 94 95 96 97 98 99 100 101 102 103 104 105 106 107 108 109 110 111 112 113 114 115 116 117 118 119 120 121 122 123 124 125 126 127 128 129 130 131 132 133 134 135 136 137 138 139 140 141 142 143 144 145 146 147 148 149 150 151 152 153 154 155 156 157 158 159 160 161 162 163 164 165 166 167 168 169 170 171 172 173 174 175 176 177 178 179 180 181 182 183 184 185 186 187 188 189 190 191 192 193 194 195 196 197 198
$end

$molecule
read
$end

--------------------------------------------------------------

   21   -2280.6324041272      8.81E-09 Convergence criterion met
 Total energy in the final basis set = -2280.63240413
   17   -2280.6340599927      8.56E-09 Convergence criterion met
 Total energy in the final basis set = -2280.63405999
   17   -2280.6341410696      8.04E-09 Convergence criterion met
 Total energy in the final basis set = -2280.63414107
   17   -2280.6346292312      7.57E-09 Convergence criterion met
 Total energy in the final basis set = -2280.63462923
   17   -2280.6349854262      6.32E-09 Convergence criterion met
 Total energy in the final basis set = -2280.63498543
   16   -2280.6350116448      9.82E-09 Convergence criterion met
 Total energy in the final basis set = -2280.63501164
   17   -2280.6350868747      7.07E-09 Convergence criterion met
   16   -2280.6350799795      9.85E-09 Convergence criterion met
 Total energy in the final basis set = -2280.63507998
   16   -2280.6350916474      9.37E-09 Convergence criterion met
 Total energy in the final basis set = -2280.63509165
   16   -2280.6350920055      9.07E-09 Convergence criterion met
 Total energy in the final basis set = -2280.63509201
   16   -2280.6350948990      9.62E-09 Convergence criterion met
 Total energy in the final basis set = -2280.63509490
   17   -2280.6350955286      7.15E-09 Convergence criterion met
 Total energy in the final basis set = -2280.63509553
   16   -2280.6351001063      9.83E-09 Convergence criterion met
 Total energy in the final basis set = -2280.63510011

             Standard Nuclear Orientation (Angstroms)
    I     Atom           X                Y                Z
 ----------------------------------------------------------------
    1      C       0.0250415695    -0.4037281803     0.0778105540
    2      C       0.0209059204    -0.3908703706     1.4893074942
    3      H       0.9686030967    -0.4032883839     2.0178161367
    4      C      -1.1607115466    -0.3592635115     2.1951083292
    5      C      -2.3988686102    -0.3334951187     1.4877829195
    6      C      -2.4224284615    -0.3425984508     0.1188585387
    7      H      -3.3791556307    -0.3189068413    -0.3965086047
    8      C      -1.2210845110    -0.3786856888    -0.6214331556
    9      C      -1.4700030195    -0.3418784301     3.6254691596
   10      C      -0.7415620151    -0.3529668152     4.7880968627
   11      H       0.3409042836    -0.3795424136     4.7833185884
   12      C      -2.8779968481    -0.3070705405     3.7281734761
   13      C      -3.5876953756    -0.2829796629     4.9249443516
   14      C      -3.4863757784    -0.2996047610     2.4582100312
   15      C      -4.8560680462    -0.2654939031     2.3777923989
   16      H      -5.3734531915    -0.2570517042     1.4257239668
   17      C      -1.4353822699    -0.3290592929     6.0217072452
   18      H      -0.8557806406    -0.3380977613     6.9359170064
   19      C      -2.8084900264    -0.2951058380     6.1069553265
   20      H      -3.2910509150    -0.2775746891     7.0764836232
   21      C      -5.6005290043    -0.2405053435     3.5787159609
   22      H      -6.6813858271    -0.2136067962     3.5188201664
   23      C      -5.0001376710    -0.2488958748     4.8174587933
   24      H      -5.6110145144    -0.2288467101     5.7118459621
   25      B      -1.2345046301    -0.3814119277    -2.1479889019
   26      C       0.0700072949    -0.3851716693    -2.9388985060
   27      C       0.0675514467    -0.3848275188    -4.3499063129
   28      H      -0.8718504868    -0.3607569256    -4.8960688334
   29      C       1.2430765870    -0.4173427996    -5.0489910963
   30      C       2.4947161070    -0.4589320395    -4.3679358651
   31      C       2.5155388919    -0.4588472811    -2.9925734165
   32      H       3.4618538420    -0.4982522075    -2.4636748595
   33      C       1.3176959959    -0.4173984563    -2.2470336398
   34      C       1.4973079629    -0.4313063373    -6.4855358881
   35      C       0.7122869437    -0.4080811086    -7.6115515908
   36      H      -0.3687640636    -0.3642294491    -7.5542043407
   37      C       2.8955996720    -0.4863935585    -6.6357139722
   38      C       3.5407125110    -0.5227706146    -7.8699843368
   39      C       3.5481717963    -0.5058146702    -5.3845826723
   40      C       4.9192498104    -0.5655669546    -5.3794853542
   41      H       5.4855374802    -0.5865344251    -4.4569700471
   42      C       1.3417534631    -0.4422241307    -8.8768148109
   43      H       0.7225865084    -0.4235473638    -9.7650500011
   44      C       2.7096000018    -0.4985222059    -9.0169058290
   45      H       3.1507100023    -0.5242653273   -10.0060931477
   46      C       5.6035777179    -0.6029277018    -6.6182141484
   47      H       6.6850174866    -0.6503032221    -6.6053908135
   48      C       4.9541980732    -0.5828734397    -7.8310696862
   49      H       5.5228033025    -0.6144697892    -8.7525941986
   50      B       1.3521539217    -0.4338264185    -0.7065963753
   51      C      -2.6064761279    -0.4136496428    -2.9302126274
   52      C      -3.3467453602     0.7902988719    -3.1853624002
   53      C      -4.5168305549     0.7347819845    -3.8834570019
   54      H      -5.0968771405     1.6287839884    -4.0803327657
   55      C      -5.0054527416    -0.5031530129    -4.3799097019
   56      O      -6.1285028410    -0.4333299838    -5.0410487153
   57      C      -4.2937683707    -1.6973360166    -4.1496058805
   58      H      -4.6583391805    -2.6421674852    -4.5313682124
   59      C      -3.1294716319    -1.6640778283    -3.4313316505
   60      C      -6.7325915970    -1.6014990738    -5.5968390962
   61      H      -7.6426610698    -1.2623185048    -6.0807212036
   62      H      -6.9819999853    -2.3210151293    -4.8167473251
   63      H      -6.0789795976    -2.0646489450    -6.3363151360
   64      C      -2.8196082204     2.1181008341    -2.7304209798
   65      H      -2.2522937304     1.9971698856    -1.8069239069
   66      H      -3.6589526878     2.7789335304    -2.5031768856
   67      C      -2.4172234146    -2.9496444459    -3.1429607291
   68      H      -1.3401573789    -2.7819940320    -3.1207255979
   69      H      -2.6148357846    -3.6597968248    -3.9487820812
   70      C      -1.9346717977     2.7628865492    -3.7974294556
   71      H      -1.0637085539     2.1468211285    -4.0182526377
   72      H      -1.5746152771     3.7314934785    -3.4525390794
   73      H      -2.4855507279     2.9183849249    -4.7259517602
   74      C      -2.8691297174    -3.5520804414    -1.8105009982
   75      H      -2.6506874934    -2.8846336346    -0.9784158451
   76      H      -2.3438504153    -4.4890835050    -1.6297024142
   77      H      -3.9399130453    -3.7589317653    -1.8120949816
   78      C       2.7350669575    -0.4919114517     0.0518680223
   79      C       3.5122516587     0.6574727651     0.2257335931
   80      C       4.7304561343     0.6055420902     0.9045009026
   81      H       5.2973910589     1.5213262949     1.0213977130
   82      C       5.1941687044    -0.5987301397     1.4150797408
   83      O       6.3591299270    -0.7489706495     2.0863165760
   84      C       4.4321707990    -1.7501620378     1.2413567822
   85      H       4.8007477165    -2.6896086218     1.6392543625
   86      C       3.2189204556    -1.7049542320     0.5728272206
   87      C       7.1509759332     0.3897227106     2.3065755006
   88      H       8.0233529935     0.0599107442     2.8672508121
   89      H       7.4914633795     0.8464430173     1.3716811113
   90      H       6.6280524393     1.1516902209     2.8934794189
   91      C       3.0264913531     1.9974582421    -0.2666636185
   92      H       2.4758414786     1.8785456489    -1.2026041676
   93      H       3.8837106194     2.6354078477    -0.4988601951
   94      C       2.4566260012    -2.9918913536     0.3762230200
   95      H       1.3817307375    -2.8058512021     0.4341911205
   96      H       2.6900184258    -3.6804600817     1.1926226970
   97      C       2.7775256274    -3.6674232253    -0.9559909249
   98      H       2.5015074781    -3.0329781485    -1.7982414381
   99      H       3.8430297395    -3.8855826698    -1.0396470416
  100      H       2.2337572331    -4.6081985826    -1.0571918949
  101      C       2.1336908458     2.7039570306     0.7515401828
  102      H       1.2361769390     2.1209221575     0.9586237136
  103      H       2.6570976420     2.8554380605     1.6966577118
  104      H       1.8165692572     3.6805724784     0.3824029177
 ----------------------------------------------------------------

   17   -2280.6351018077      7.00E-09 Convergence criterion met
 Total energy in the final basis set = -2280.63510181
 Final energy is   -2280.63510180769
 **  OPTIMIZATION CONVERGED  **

                    Orbital Energies (a.u.)
 --------------------------------------------------------------

 Alpha MOs
 -- Occupied --
-19.607 -19.513 -10.587 -10.531 -10.511 -10.502 -10.493 -10.492
-10.492 -10.487 -10.476 -10.455 -10.452 -10.451 -10.451 -10.450
-10.449 -10.448 -10.448 -10.447 -10.447 -10.447 -10.447 -10.447
-10.447 -10.446 -10.446 -10.446 -10.446 -10.445 -10.445 -10.439
-10.439 -10.438 -10.438 -10.437 -10.436 -10.434 -10.434 -10.433
-10.432 -10.432 -10.431 -10.431 -10.430 -10.419 -10.417 -10.416
-10.415 -10.414 -10.413 -10.407 -10.406 -10.406 -10.405 -10.396
 -6.908  -6.900  -1.260  -1.169  -1.004  -0.999  -0.999  -0.943
 -0.940  -0.937  -0.930  -0.919  -0.919  -0.906  -0.888  -0.880
 -0.871  -0.858  -0.850  -0.839  -0.837  -0.836  -0.833  -0.832
 -0.816  -0.806  -0.801  -0.796  -0.795  -0.786  -0.784  -0.758
 -0.745  -0.731  -0.717  -0.714  -0.712  -0.704  -0.696  -0.695
 -0.688  -0.673  -0.666  -0.663  -0.663  -0.647  -0.636  -0.633
 -0.628  -0.628  -0.614  -0.612  -0.595  -0.583  -0.579  -0.578
 -0.573  -0.569  -0.567  -0.561  -0.559  -0.555  -0.547  -0.539
 -0.528  -0.527  -0.523  -0.522  -0.521  -0.511  -0.511  -0.505
 -0.502  -0.494  -0.491  -0.489  -0.486  -0.486  -0.485  -0.478
 -0.477  -0.474  -0.473  -0.470  -0.470  -0.469  -0.469  -0.466
 -0.464  -0.463  -0.458  -0.454  -0.450  -0.449  -0.446  -0.440
 -0.439  -0.437  -0.427  -0.424  -0.423  -0.420  -0.417  -0.415
 -0.415  -0.411  -0.404  -0.403  -0.401  -0.399  -0.394  -0.393
 -0.387  -0.384  -0.383  -0.383  -0.381  -0.381  -0.378  -0.374
 -0.372  -0.366  -0.358  -0.357  -0.354  -0.346  -0.343  -0.332
 -0.327  -0.320  -0.319  -0.306  -0.300  -0.285  -0.283  -0.270
 -0.260  -0.252  -0.242  -0.239  -0.233  -0.152

 Beta MOs
 -- Occupied --
-19.613 -19.513 -10.591 -10.530 -10.512 -10.501 -10.501 -10.494
-10.492 -10.487 -10.476 -10.455 -10.452 -10.452 -10.451 -10.449
-10.449 -10.448 -10.448 -10.448 -10.448 -10.448 -10.447 -10.447
-10.446 -10.446 -10.446 -10.445 -10.445 -10.444 -10.444 -10.439
-10.439 -10.437 -10.437 -10.436 -10.436 -10.434 -10.434 -10.433
-10.432 -10.432 -10.432 -10.431 -10.430 -10.419 -10.417 -10.416
-10.415 -10.415 -10.414 -10.406 -10.406 -10.405 -10.405 -10.397
 -6.904  -6.898  -1.271  -1.169  -1.013  -0.999  -0.999  -0.942
 -0.939  -0.937  -0.932  -0.918  -0.918  -0.914  -0.887  -0.880
 -0.871  -0.859  -0.849  -0.842  -0.836  -0.836  -0.832  -0.831
 -0.825  -0.805  -0.800  -0.796  -0.795  -0.786  -0.783  -0.758
 -0.748  -0.734  -0.717  -0.712  -0.711  -0.703  -0.699  -0.695
 -0.688  -0.673  -0.668  -0.663  -0.660  -0.646  -0.636  -0.636
 -0.628  -0.628  -0.615  -0.614  -0.604  -0.595  -0.578  -0.577
 -0.571  -0.569  -0.568  -0.562  -0.558  -0.555  -0.546  -0.540
 -0.529  -0.528  -0.523  -0.522  -0.522  -0.511  -0.510  -0.506
 -0.503  -0.500  -0.491  -0.489  -0.489  -0.485  -0.485  -0.479
 -0.478  -0.476  -0.473  -0.473  -0.469  -0.469  -0.468  -0.466
 -0.464  -0.463  -0.462  -0.456  -0.450  -0.450  -0.445  -0.445
 -0.439  -0.437  -0.428  -0.425  -0.423  -0.420  -0.415  -0.415
 -0.414  -0.410  -0.406  -0.403  -0.402  -0.400  -0.399  -0.395
 -0.393  -0.386  -0.383  -0.382  -0.381  -0.381  -0.377  -0.374
 -0.373  -0.365  -0.358  -0.355  -0.352  -0.344  -0.343  -0.332
 -0.331  -0.328  -0.318  -0.305  -0.300  -0.296  -0.282  -0.281
 -0.260  -0.260  -0.245  -0.239  -0.233  -0.232

          Ground-State Mulliken Net Atomic Charges

     Atom                 Charge (a.u.)    Spin (a.u.)
  --------------------------------------------------------
      1 C                    -0.143822       0.083544
      2 C                    -0.409706      -0.073967
      3 H                     0.232705       0.003020
      4 C                     0.093385       0.110390
      5 C                     0.064005       0.011227
      6 C                    -0.404911       0.009633
      7 H                     0.195726      -0.000476
      8 C                    -0.124775      -0.048010
      9 C                     0.187379      -0.059777
     10 C                    -0.404437       0.085508
     11 H                     0.231782      -0.005012
     12 C                    -0.075672       0.021675
     13 C                     0.237464      -0.034631
     14 C                     0.187822      -0.036397
     15 C                    -0.396474       0.056580
     16 H                     0.215161      -0.003352
     17 C                    -0.215803      -0.052280
     18 H                     0.234135       0.002527
     19 C                    -0.356294       0.076546
     20 H                     0.228070      -0.004545
     21 C                    -0.219727      -0.039044
     22 H                     0.230636       0.001953
     23 C                    -0.350828       0.053225
     24 H                     0.228278      -0.003096
     25 B                     0.501229       0.417819
     26 C                    -0.122802      -0.045779
     27 C                    -0.404159       0.009540
     28 H                     0.194751      -0.000035
     29 C                     0.064424       0.010888
     30 C                     0.093645       0.111464
     31 C                    -0.408273      -0.073943
     32 H                     0.233197       0.003012
     33 C                    -0.146850       0.084298
     34 C                     0.188185      -0.036435
     35 C                    -0.398032       0.056883
     36 H                     0.213793      -0.003379
     37 C                    -0.075738       0.021857
     38 C                     0.236790      -0.034954
     39 C                     0.188318      -0.059974
     40 C                    -0.405935       0.086114
     41 H                     0.231355      -0.005053
     42 C                    -0.219234      -0.039263
     43 H                     0.230291       0.001964
     44 C                    -0.350490       0.053411
     45 H                     0.228382      -0.003104
     46 C                    -0.215320      -0.052574
     47 H                     0.233935       0.002538
     48 C                    -0.356296       0.077143
     49 H                     0.228162      -0.004578
     50 B                     0.553485       0.254065
     51 C                    -0.121850      -0.550595
     52 C                     0.091807       0.099519
     53 C                    -0.356827      -0.125543
     54 H                     0.278446       0.008754
     55 C                     0.466321      -0.216266
     56 O                    -0.392624      -0.138661
     57 C                    -0.416329      -0.025997
     58 H                     0.280505       0.003817
     59 C                     0.102877      -0.015415
     60 C                    -0.444079       0.013840
     61 H                     0.282786       0.000021
     62 H                     0.253062      -0.009068
     63 H                     0.253318      -0.009111
     64 C                    -0.550306       0.000991
     65 H                     0.292250      -0.002444
     66 H                     0.246037       0.001192
     67 C                    -0.554008       0.009522
     68 H                     0.300053      -0.004759
     69 H                     0.245786      -0.000192
     70 C                    -0.660378      -0.001389
     71 H                     0.264977      -0.000428
     72 H                     0.241385       0.000095
     73 H                     0.214141       0.000009
     74 C                    -0.660244      -0.006876
     75 H                     0.269805      -0.000169
     76 H                     0.244183      -0.001037
     77 H                     0.213420       0.000219
     78 C                    -0.196712      -0.026695
     79 C                     0.066851       0.004585
     80 C                    -0.439609      -0.001527
     81 H                     0.230113       0.000350
     82 C                     0.388171       0.001357
     83 O                    -0.465675       0.000021
     84 C                    -0.393486      -0.001698
     85 H                     0.220906       0.000388
     86 C                     0.064847       0.004608
     87 C                    -0.415448      -0.000012
     88 H                     0.242447       0.000004
     89 H                     0.209237       0.000017
     90 H                     0.209564       0.000009
     91 C                    -0.543310       0.002581
     92 H                     0.257213      -0.001725
     93 H                     0.221433       0.000278
     94 C                    -0.543661       0.002415
     95 H                     0.255234      -0.001713
     96 H                     0.225231       0.000288
     97 C                    -0.655221       0.000215
     98 H                     0.248208      -0.000484
     99 H                     0.215364      -0.000073
    100 H                     0.211840      -0.000015
    101 C                    -0.653625       0.000176
    102 H                     0.249079      -0.000442
    103 H                     0.211916      -0.000079
    104 H                     0.213664      -0.000020
  --------------------------------------------------------
  Sum of atomic charges =    -0.000000

                    Cartesian Multipole Moments
 -----------------------------------------------------------------
    Charge (ESU x 10^10)
                -0.0000
    Dipole Moment (Debye)
         X     -14.2379      Y      -0.8436      Z      -8.7068
       Tot      16.7104
    Quadrupole Moments (Debye-Ang)
        XX    -244.3899     XY      28.7971     YY    -331.3379
        XZ      77.2342     YZ      18.1393     ZZ    -283.4764

 Total job time:  39321.70s(wall), 116464.04s(cpu)
        *  Thank you very much for using Q-Chem.  Have a nice day.  *
