 Q-Chem 5.1, Q-Chem, Inc., Pleasanton, CA (2018)
 Q-Chem 5.1.1 for Intel X86 EM64T Linux

User input:
--------------------------------------------------------------
$rem
threads 8
jobtype	sp
method PBEh-3c
basis def2-mSVP
mem_static	1024
mem_total	8000
sym_ignore	true
unrestricted true
scf_convergence	9
solvent_method	pcm
$end

$molecule
read moms1opt_tol.mol
$end

$solvent
dielectric	8.93
$end

$pcm
theory iefpcm
$end
--------------------------------------------------------------

   16   -2280.7303677339      5.21e-10  Convergence criterion met
 Total energy in the final basis set =    -2280.7303677339
 Total job time:  2858.61s(wall), 22062.31s(cpu)
        *  Thank you very much for using Q-Chem.  Have a nice day.  *
 Q-Chem 5.1, Q-Chem, Inc., Pleasanton, CA (2018)
 Q-Chem 5.1.1 for Intel X86 EM64T Linux

User input:
--------------------------------------------------------------

$rem
threads 8
jobtype opt
method PBEh-3c
basis def2-mSVP
scf_guess	read
mem_static      1024
mem_total       8000
sym_ignore      true
unrestricted true
mom_start       1
scf_algorithm	diis
scf_max_cycles	250
solvent_method	pcm
geom_opt_tol_energy 25
geom_opt_tol_gradient 75
$end

$solvent
dielectric      8.93
$end
$pcm
theory iefpcm
$end

$occupied
1 2 3 4 5 6 7 8 9 10 11 12 13 14 15 16 17 18 19 20 21 22 23 24 25 26 27 28 29 30 31 32 33 34 35 36 37 38 39 40 41 42 43 44 45 46 47 48 49 50 51 52 53 54 55 56 57 58 59 60 61 62 63 64 65 66 67 68 69 70 71 72 73 74 75 76 77 78 79 80 81 82 83 84 85 86 87 88 89 90 91 92 93 94 95 96 97 98 99 100 101 102 103 104 105 106 107 108 109 110 111 112 113 114 115 116 117 118 119 120 121 122 123 124 125 126 127 128 129 130 131 132 133 134 135 136 137 138 139 140 141 142 143 144 145 146 147 148 149 150 151 152 153 154 155 156 157 158 159 160 161 162 163 164 165 166 167 168 169 170 171 172 173 174 175 176 177 178 179 180 181 182 183 184 185 186 187 188 189 190 191 192 193 194 195 196 197  199
1 2 3 4 5 6 7 8 9 10 11 12 13 14 15 16 17 18 19 20 21 22 23 24 25 26 27 28 29 30 31 32 33 34 35 36 37 38 39 40 41 42 43 44 45 46 47 48 49 50 51 52 53 54 55 56 57 58 59 60 61 62 63 64 65 66 67 68 69 70 71 72 73 74 75 76 77 78 79 80 81 82 83 84 85 86 87 88 89 90 91 92 93 94 95 96 97 98 99 100 101 102 103 104 105 106 107 108 109 110 111 112 113 114 115 116 117 118 119 120 121 122 123 124 125 126 127 128 129 130 131 132 133 134 135 136 137 138 139 140 141 142 143 144 145 146 147 148 149 150 151 152 153 154 155 156 157 158 159 160 161 162 163 164 165 166 167 168 169 170 171 172 173 174 175 176 177 178 179 180 181 182 183 184 185 186 187 188 189 190 191 192 193 194 195 196 197 198
$end

$molecule
read
$end

--------------------------------------------------------------

   22   -2280.6550740878      8.70E-09 Convergence criterion met
 Total energy in the final basis set = -2280.65507409
   20   -2280.6551440568      9.11E-09 Convergence criterion met
 Total energy in the final basis set = -2280.65514406
   19   -2280.6548886392      9.61E-09 Convergence criterion met
 Total energy in the final basis set = -2280.65488864
   20   -2280.6551952398      7.28E-09 Convergence criterion met
 Total energy in the final basis set = -2280.65519524
   19   -2280.6552011063      8.52E-09 Convergence criterion met
 Total energy in the final basis set = -2280.65520111
   20   -2280.6551728070      7.94E-09 Convergence criterion met
 Total energy in the final basis set = -2280.65517281
   19   -2280.6551844336      9.11E-09 Convergence criterion met
 Total energy in the final basis set = -2280.65518443
   19   -2280.6551830517      9.91E-09 Convergence criterion met
 Total energy in the final basis set = -2280.65518305
   20   -2280.6551788452      7.39E-09 Convergence criterion met
 Total energy in the final basis set = -2280.65517885
   20   -2280.6551736828      7.33E-09 Convergence criterion met
 Total energy in the final basis set = -2280.65517368

             Standard Nuclear Orientation (Angstroms)
    I     Atom           X                Y                Z
 ----------------------------------------------------------------
    1      C       0.0322788665    -0.4095767733     0.0827641986
    2      C       0.0274164269    -0.3951676200     1.4953378423
    3      H       0.9736653962    -0.4025939845     2.0267687224
    4      C      -1.1546807452    -0.3676929599     2.2006239463
    5      C      -2.3938863789    -0.3500827016     1.4926330108
    6      C      -2.4171828498    -0.3619852168     0.1227068095
    7      H      -3.3732115643    -0.3444662464    -0.3934301106
    8      C      -1.2156567487    -0.3932066784    -0.6168325136
    9      C      -1.4639725026    -0.3468042879     3.6315739870
   10      C      -0.7349947623    -0.3491618983     4.7948661348
   11      H       0.3477560149    -0.3699540329     4.7911384746
   12      C      -2.8725348661    -0.3185756347     3.7333391847
   13      C      -3.5827266412    -0.2928892965     4.9305353310
   14      C      -3.4813582868    -0.3189248541     2.4628756571
   15      C      -4.8519910565    -0.2923174531     2.3817209601
   16      H      -5.3693941782    -0.2906618816     1.4296394514
   17      C      -1.4295415329    -0.3233335271     6.0286391539
   18      H      -0.8500877756    -0.3252733371     6.9430281645
   19      C      -2.8036501257    -0.2959851071     6.1132917847
   20      H      -3.2869891375    -0.2766780625     7.0824397914
   21      C      -5.5963155445    -0.2663645625     3.5834859801
   22      H      -6.6772478472    -0.2455403403     3.5229626409
   23      C      -4.9960395290    -0.2663689929     4.8231586483
   24      H      -5.6067730859    -0.2457174144     5.7176496420
   25      B      -1.2345943678    -0.3931407155    -2.1441832365
   26      C       0.0728281978    -0.3936887718    -2.9327364908
   27      C       0.0672051985    -0.4027621132    -4.3433699650
   28      H      -0.8733969273    -0.3918870545    -4.8869243555
   29      C       1.2423371314    -0.4289508371    -5.0451474825
   30      C       2.4967125616    -0.4524228144    -4.3660711711
   31      C       2.5204768144    -0.4473746053    -2.9906497956
   32      H       3.4697747728    -0.4745285026    -2.4661203645
   33      C       1.3229845676    -0.4157712837    -2.2418735213
   34      C       1.4935007813    -0.4475778288    -6.4819178906
   35      C       0.7046689963    -0.4401959087    -7.6064472615
   36      H      -0.3767526900    -0.4119404155    -7.5467819390
   37      C       2.8926423194    -0.4845177447    -6.6348565486
   38      C       3.5356805387    -0.5161162720    -7.8710671941
   39      C       3.5491316857    -0.4894235076    -5.3851879462
   40      C       4.9217660559    -0.5279679318    -5.3829406988
   41      H       5.4913971542    -0.5355572482    -4.4621007153
   42      C       1.3326431843    -0.4707968216    -8.8732772877
   43      H       0.7108003873    -0.4649345596    -9.7597863308
   44      C       2.7015355603    -0.5079657759    -9.0168961503
   45      H       3.1410409572    -0.5312082335   -10.0068704536
   46      C       5.6036913089    -0.5598770478    -6.6237750379
   47      H       6.6857964324    -0.5902702976    -6.6135323961
   48      C       4.9504870727    -0.5547177839    -7.8356762831
   49      H       5.5168069527    -0.5810833207    -8.7588273003
   50      B       1.3591747351    -0.4323065928    -0.7017475307
   51      C      -2.6078982718    -0.4166099140    -2.9300809237
   52      C      -3.3223319413     0.7947827961    -3.2088135187
   53      C      -4.4886896322     0.7496544307    -3.9139147504
   54      H      -5.0514392516     1.6507840185    -4.1280825865
   55      C      -4.9955086542    -0.4892657451    -4.3949466687
   56      O      -6.1078406486    -0.4114450546    -5.0639945410
   57      C      -4.3051873597    -1.6932724551    -4.1381210506
   58      H      -4.6836600973    -2.6377749105    -4.5073404337
   59      C      -3.1477695869    -1.6650820306    -3.4108515500
   60      C      -6.7327995170    -1.5784737999    -5.6106824024
   61      H      -7.6331844875    -1.2263554310    -6.1025542823
   62      H      -6.9960594412    -2.2809333058    -4.8206311266
   63      H      -6.0804173467    -2.0593071130    -6.3389588776
   64      C      -2.7785226371     2.1234351761    -2.7724575183
   65      H      -2.1924901021     2.0060596587    -1.8600833786
   66      H      -3.6101869278     2.7883523938    -2.5305995740
   67      C      -2.4636009039    -2.9604038413    -3.0913721476
   68      H      -1.3894175495    -2.8026120419    -2.9906068459
   69      H      -2.6082273837    -3.6576603594    -3.9189428801
   70      C      -1.9167656701     2.7617117845    -3.8614470910
   71      H      -1.0565102131     2.1386799474    -4.1049887740
   72      H      -1.5428890228     3.7295471602    -3.5286108166
   73      H      -2.4909028219     2.9173457647    -4.7755366935
   74      C      -3.0152742669    -3.5784369669    -1.8051018775
   75      H      -2.8730246208    -2.9150189325    -0.9528358560
   76      H      -2.4998306918    -4.5136833991    -1.5894250020
   77      H      -4.0807031425    -3.7919261252    -1.8964165002
   78      C       2.7440907025    -0.4876613918     0.0565809394
   79      C       3.5184609485     0.6635380955     0.2368271452
   80      C       4.7379193616     0.6131754860     0.9146893460
   81      H       5.3021210350     1.5301203969     1.0359885789
   82      C       5.2066779354    -0.5925328886     1.4189121592
   83      O       6.3721452631    -0.7414985060     2.0884911869
   84      C       4.4482953425    -1.7462937311     1.2388793469
   85      H       4.8187237240    -2.6879516952     1.6307154202
   86      C       3.2339518868    -1.7017439439     0.5703719865
   87      C       7.1624194442     0.4018653297     2.3150143342
   88      H       8.0355993551     0.0717796283     2.8737802452
   89      H       7.4997056109     0.8630422957     1.3818761934
   90      H       6.6356096638     1.1577169671     2.9052038933
   91      C       3.0295447924     2.0050956694    -0.2483994641
   92      H       2.4729909220     1.8883013459    -1.1811224457
   93      H       3.8848314034     2.6447418245    -0.4820578325
   94      C       2.4787549889    -2.9918563455     0.3662166591
   95      H       1.4027438567    -2.8096521258     0.4136412804
   96      H       2.7079722921    -3.6812266650     1.1829892906
   97      C       2.8139868380    -3.6643586219    -0.9641004950
   98      H       2.5495867657    -3.0255461093    -1.8070394426
   99      H       3.8798318205    -3.8858469704    -1.0354990372
  100      H       2.2688350293    -4.6030959087    -1.0749326753
  101      C       2.1420962392     2.7080067194     0.7770251974
  102      H       1.2484546382     2.1209581721     0.9906914199
  103      H       2.6727367020     2.8619274923     1.7177749991
  104      H       1.8187177016     3.6834786285     0.4105288928
 ----------------------------------------------------------------

   20   -2280.6551737435      7.31E-09 Convergence criterion met
 Total energy in the final basis set = -2280.65517374
 Final energy is   -2280.65517374352
 **  OPTIMIZATION CONVERGED  **

                    Orbital Energies (a.u.)
 --------------------------------------------------------------

 Alpha MOs
 -- Occupied --
-19.598 -19.521 -10.579 -10.514 -10.503 -10.496 -10.494 -10.487
-10.484 -10.483 -10.479 -10.458 -10.458 -10.455 -10.455 -10.454
-10.454 -10.453 -10.453 -10.453 -10.453 -10.452 -10.452 -10.452
-10.452 -10.451 -10.451 -10.450 -10.450 -10.450 -10.447 -10.447
-10.447 -10.446 -10.446 -10.442 -10.442 -10.442 -10.441 -10.441
-10.441 -10.439 -10.439 -10.430 -10.428 -10.427 -10.425 -10.425
-10.424 -10.419 -10.419 -10.415 -10.414 -10.414 -10.414 -10.406
 -6.914  -6.907  -1.250  -1.176  -1.006  -1.006  -0.996  -0.950
 -0.947  -0.946  -0.925  -0.925  -0.924  -0.899  -0.892  -0.887
 -0.880  -0.858  -0.850  -0.844  -0.843  -0.838  -0.838  -0.832
 -0.814  -0.812  -0.806  -0.801  -0.798  -0.794  -0.791  -0.765
 -0.739  -0.726  -0.723  -0.718  -0.717  -0.709  -0.703  -0.696
 -0.689  -0.679  -0.669  -0.667  -0.660  -0.653  -0.643  -0.634
 -0.634  -0.623  -0.623  -0.604  -0.594  -0.584  -0.583  -0.578
 -0.576  -0.572  -0.568  -0.565  -0.564  -0.556  -0.555  -0.532
 -0.529  -0.528  -0.528  -0.522  -0.516  -0.516  -0.514  -0.508
 -0.498  -0.497  -0.496  -0.493  -0.491  -0.488  -0.485  -0.482
 -0.482  -0.479  -0.477  -0.477  -0.476  -0.476  -0.473  -0.470
 -0.468  -0.461  -0.459  -0.455  -0.453  -0.450  -0.445  -0.445
 -0.442  -0.434  -0.431  -0.429  -0.428  -0.424  -0.424  -0.422
 -0.419  -0.415  -0.408  -0.407  -0.402  -0.400  -0.399  -0.394
 -0.390  -0.390  -0.389  -0.388  -0.386  -0.384  -0.381  -0.380
 -0.374  -0.372  -0.364  -0.363  -0.359  -0.354  -0.350  -0.340
 -0.327  -0.326  -0.319  -0.314  -0.307  -0.292  -0.290  -0.278
 -0.270  -0.259  -0.249  -0.247  -0.243  -0.158

 Beta MOs
 -- Occupied --
-19.604 -19.521 -10.582 -10.513 -10.503 -10.496 -10.495 -10.493
-10.486 -10.484 -10.479 -10.459 -10.458 -10.455 -10.455 -10.454
-10.454 -10.453 -10.453 -10.452 -10.452 -10.452 -10.452 -10.451
-10.451 -10.451 -10.451 -10.450 -10.450 -10.450 -10.447 -10.446
-10.446 -10.445 -10.445 -10.442 -10.442 -10.441 -10.441 -10.441
-10.441 -10.440 -10.440 -10.431 -10.428 -10.427 -10.425 -10.425
-10.424 -10.420 -10.420 -10.414 -10.414 -10.414 -10.413 -10.406
 -6.910  -6.904  -1.262  -1.176  -1.006  -1.005  -1.005  -0.949
 -0.946  -0.945  -0.925  -0.924  -0.924  -0.906  -0.893  -0.887
 -0.880  -0.857  -0.851  -0.843  -0.842  -0.837  -0.837  -0.836
 -0.818  -0.813  -0.805  -0.801  -0.801  -0.794  -0.789  -0.765
 -0.742  -0.728  -0.722  -0.717  -0.716  -0.709  -0.703  -0.696
 -0.691  -0.678  -0.669  -0.665  -0.661  -0.652  -0.642  -0.634
 -0.634  -0.626  -0.622  -0.607  -0.594  -0.592  -0.583  -0.582
 -0.577  -0.575  -0.573  -0.564  -0.564  -0.558  -0.554  -0.532
 -0.530  -0.528  -0.528  -0.523  -0.517  -0.515  -0.515  -0.507
 -0.499  -0.497  -0.496  -0.494  -0.493  -0.491  -0.485  -0.482
 -0.482  -0.479  -0.478  -0.476  -0.476  -0.476  -0.473  -0.470
 -0.469  -0.467  -0.460  -0.455  -0.453  -0.453  -0.447  -0.445
 -0.443  -0.438  -0.431  -0.429  -0.427  -0.424  -0.423  -0.419
 -0.417  -0.414  -0.408  -0.406  -0.403  -0.402  -0.399  -0.398
 -0.393  -0.390  -0.388  -0.388  -0.387  -0.386  -0.384  -0.381
 -0.378  -0.374  -0.363  -0.360  -0.359  -0.352  -0.350  -0.338
 -0.331  -0.326  -0.325  -0.308  -0.303  -0.302  -0.288  -0.288
 -0.270  -0.267  -0.252  -0.246  -0.242  -0.240

          Ground-State Mulliken Net Atomic Charges

     Atom                 Charge (a.u.)    Spin (a.u.)
  --------------------------------------------------------
      1 C                    -0.142898       0.072578
      2 C                    -0.414658      -0.064371
      3 H                     0.233508       0.002467
      4 C                     0.081410       0.098750
      5 C                     0.051369       0.027471
      6 C                    -0.409490      -0.004054
      7 H                     0.218732       0.000359
      8 C                    -0.131520      -0.027584
      9 C                     0.175870      -0.057925
     10 C                    -0.411678       0.084391
     11 H                     0.244362      -0.004912
     12 C                    -0.078638       0.022527
     13 C                     0.219990      -0.036150
     14 C                     0.176176      -0.041525
     15 C                    -0.403351       0.063714
     16 H                     0.237721      -0.003716
     17 C                    -0.230408      -0.052269
     18 H                     0.249459       0.002504
     19 C                    -0.363309       0.076063
     20 H                     0.245623      -0.004446
     21 C                    -0.233873      -0.042742
     22 H                     0.248536       0.002094
     23 C                    -0.358487       0.059407
     24 H                     0.245665      -0.003428
     25 B                     0.509511       0.394716
     26 C                    -0.130677      -0.026186
     27 C                    -0.407849      -0.004250
     28 H                     0.218288       0.000818
     29 C                     0.051637       0.026913
     30 C                     0.082210       0.098734
     31 C                    -0.413770      -0.064230
     32 H                     0.234065       0.002454
     33 C                    -0.144309       0.072763
     34 C                     0.176661      -0.041161
     35 C                    -0.404655       0.063273
     36 H                     0.236882      -0.003699
     37 C                    -0.078556       0.022408
     38 C                     0.219234      -0.035996
     39 C                     0.176833      -0.057594
     40 C                    -0.413199       0.083968
     41 H                     0.244110      -0.004891
     42 C                    -0.233489      -0.042436
     43 H                     0.248467       0.002079
     44 C                    -0.357946       0.058817
     45 H                     0.245851      -0.003391
     46 C                    -0.229990      -0.051943
     47 H                     0.249364       0.002487
     48 C                    -0.363174       0.075582
     49 H                     0.245854      -0.004415
     50 B                     0.530697       0.267979
     51 C                    -0.129673      -0.563372
     52 C                     0.086922       0.126984
     53 C                    -0.355217      -0.158524
     54 H                     0.292053       0.010250
     55 C                     0.472066      -0.202883
     56 O                    -0.386660      -0.155949
     57 C                    -0.408894      -0.058608
     58 H                     0.301403       0.005302
     59 C                     0.095806       0.021282
     60 C                    -0.452621       0.014911
     61 H                     0.287874      -0.000004
     62 H                     0.264121      -0.009855
     63 H                     0.264527      -0.009979
     64 C                    -0.549704      -0.000828
     65 H                     0.280493      -0.002222
     66 H                     0.256997       0.001386
     67 C                    -0.553900       0.007661
     68 H                     0.287947      -0.004207
     69 H                     0.259505      -0.000379
     70 C                    -0.664072      -0.000307
     71 H                     0.252119      -0.000337
     72 H                     0.241473       0.000399
     73 H                     0.223840      -0.000024
     74 C                    -0.662421      -0.005324
     75 H                     0.252836      -0.000021
     76 H                     0.244335      -0.000497
     77 H                     0.224687       0.000174
     78 C                    -0.193153      -0.027363
     79 C                     0.056824       0.004918
     80 C                    -0.448360      -0.001667
     81 H                     0.247586       0.000362
     82 C                     0.380945       0.001781
     83 O                    -0.472878       0.000180
     84 C                    -0.405458      -0.001817
     85 H                     0.230635       0.000398
     86 C                     0.054466       0.004791
     87 C                    -0.426457      -0.000030
     88 H                     0.250316       0.000003
     89 H                     0.217593       0.000027
     90 H                     0.217621       0.000021
     91 C                    -0.542014       0.002628
     92 H                     0.253144      -0.001794
     93 H                     0.229994       0.000305
     94 C                    -0.542982       0.002550
     95 H                     0.252689      -0.001824
     96 H                     0.231999       0.000319
     97 C                    -0.661289       0.000159
     98 H                     0.242713      -0.000484
     99 H                     0.217550      -0.000078
    100 H                     0.220642      -0.000013
    101 C                    -0.660345       0.000151
    102 H                     0.242657      -0.000452
    103 H                     0.216197      -0.000083
    104 H                     0.221367      -0.000017
  --------------------------------------------------------
  Sum of atomic charges =    -0.000000

                    Cartesian Multipole Moments
 -----------------------------------------------------------------
    Charge (ESU x 10^10)
                -0.0000
    Dipole Moment (Debye)
         X     -16.6355      Y      -0.8611      Z     -10.2437
       Tot      19.5554
    Quadrupole Moments (Debye-Ang)
        XX    -228.9234     XY      32.7899     YY    -329.5544
        XZ      86.5082     YZ      20.4403     ZZ    -269.7598

 Total job time:  29916.92s(wall), 161373.05s(cpu)
        *  Thank you very much for using Q-Chem.  Have a nice day.  *
