 Q-Chem 5.0, Q-Chem, Inc., Pleasanton, CA (2017)
 Q-Chem 5.0.1 for Intel X86 EM64T Linux

User input:
--------------------------------------------------------------
$rem
threads 8
jobtype opt
method PBEh-3c
basis def2-mSVP
mem_static      1024
mem_total       8000
sym_ignore      true
unrestricted true
scf_algorithm   diis
scf_max_cycles  250
solvent_method  pcm
geom_opt_tol_energy 25
geom_opt_tol_gradient 75
$end

$pcm
theory  iefpcm
$end

$solvent
dielectric      2.03
$end

$molecule
read uincoords.mol
$end

--------------------------------------------------------------

   25   -2280.6292192373      9.15E-09 Convergence criterion met
 Total energy in the final basis set = -2280.62921924
   19   -2280.6308266575      6.42E-09 Convergence criterion met
 Total energy in the final basis set = -2280.63082666
   19   -2280.6309834637      7.84E-09 Convergence criterion met
 Total energy in the final basis set = -2280.63098346
   19   -2280.6315044790      7.85E-09 Convergence criterion met
 Total energy in the final basis set = -2280.63150448
   18   -2280.6317337494      9.53E-09 Convergence criterion met
 Total energy in the final basis set = -2280.63173375
   18   -2280.6316840460      8.16E-09 Convergence criterion met
 Total energy in the final basis set = -2280.63168405
   18   -2280.6318694813      7.79E-09 Convergence criterion met
 Total energy in the final basis set = -2280.63186948
   17   -2280.6318130412      9.92E-09 Convergence criterion met
   17   -2280.6318595968      9.11E-09 Convergence criterion met
 Total energy in the final basis set = -2280.63185960
   17   -2280.6318784477      9.00E-09 Convergence criterion met
 Total energy in the final basis set = -2280.63187845
   17   -2280.6318853244      9.30E-09 Convergence criterion met
 Total energy in the final basis set = -2280.63188532
   17   -2280.6318871442      7.96E-09 Convergence criterion met
 Total energy in the final basis set = -2280.63188714
   16   -2280.6318867918      9.94E-09 Convergence criterion met
 Total energy in the final basis set = -2280.63188679
   17   -2280.6318874631      7.70E-09 Convergence criterion met
 Total energy in the final basis set = -2280.63188746

             Standard Nuclear Orientation (Angstroms)
    I     Atom           X                Y                Z
 ----------------------------------------------------------------
    1      C       0.0213327976    -0.3970387470     0.0773132864
    2      C       0.0175929461    -0.3822555140     1.4885475998
    3      H       0.9657044107    -0.3958886393     2.0162446165
    4      C      -1.1637520126    -0.3482908992     2.1947370411
    5      C      -2.4020132018    -0.3228201750     1.4876123515
    6      C      -2.4261376950    -0.3336286584     0.1190522706
    7      H      -3.3832747846    -0.3124711423    -0.3956921490
    8      C      -1.2246681334    -0.3681885614    -0.6218581037
    9      C      -1.4726626274    -0.3287730439     3.6248784726
   10      C      -0.7439555943    -0.3384217599     4.7872639604
   11      H       0.3384640624    -0.3655588207     4.7820739939
   12      C      -2.8805840087    -0.2929832541     3.7280127813
   13      C      -3.5898515188    -0.2666955006     4.9248756032
   14      C      -3.4892767515    -0.2868691108     2.4583514208
   15      C      -4.8588089426    -0.2519905648     2.3783219801
   16      H      -5.3764192303    -0.2445453300     1.4263744305
   17      C      -1.4373105849    -0.3122888492     6.0209353923
   18      H      -0.8574805370    -0.3202411107     6.9349906594
   19      C      -2.8102639951    -0.2774677535     6.1065470018
   20      H      -3.2924338319    -0.2581794192     7.0762194345
   21      C      -5.6029307210    -0.2248793078     3.5792793158
   22      H      -6.6837818327    -0.1973760101     3.5197316681
   23      C      -5.0021558795    -0.2318798122     4.8177055002
   24      H      -5.6127766283    -0.2101553211     5.7122128288
   25      B      -1.2371146036    -0.3784766660    -2.1483577651
   26      C       0.0676949853    -0.3914799612    -2.9392229620
   27      C       0.0664498715    -0.3880865569    -4.3504081219
   28      H      -0.8720809665    -0.3572127476    -4.8978342939
   29      C       1.2423685111    -0.4245218949    -5.0483313690
   30      C       2.4931923790    -0.4704169849    -4.3665750201
   31      C       2.5128949808    -0.4689913743    -2.9913025497
   32      H       3.4583744105    -0.5094493354    -2.4610409315
   33      C       1.3145625203    -0.4241997478    -2.2469148372
   34      C       1.4975417113    -0.4389965626    -6.4848162920
   35      C       0.7134624787    -0.4129883840    -7.6111902845
   36      H      -0.3674463401    -0.3650715416    -7.5544503217
   37      C       2.8955980413    -0.4992355804    -6.6340635969
   38      C       3.5412875409    -0.5383372051    -7.8678111197
   39      C       3.5471500452    -0.5210024185    -5.3825336670
   40      C       4.9177748673    -0.5862461342    -5.3765611738
   41      H       5.4832452788    -0.6095352659    -4.4536320809
   42      C       1.3434413168    -0.4496237570    -8.8760346044
   43      H       0.7249735624    -0.4286779615    -9.7646943312
   44      C       2.7110148195    -0.5111843193    -9.0151231854
   45      H       3.1526123586    -0.5387728981   -10.0040350808
   46      C       5.6027976347    -0.6264593880    -6.6147616357
   47      H       6.6840126941    -0.6781978801    -6.6012009396
   48      C       4.9544154020    -0.6040026938    -7.8279067785
   49      H       5.5235559139    -0.6380193713    -8.7489950313
   50      B       1.3485086832    -0.4345105607    -0.7064177213
   51      C      -2.6077980839    -0.4139264731    -2.9292500603
   52      C      -3.3689340354     0.7838668936    -3.1533526313
   53      C      -4.5377037107     0.7271509316    -3.8533784881
   54      H      -5.1291572008     1.6174224318    -4.0321943763
   55      C      -5.0083487457    -0.5055489612    -4.3780284596
   56      O      -6.1344719758    -0.4368615967    -5.0365327035
   57      C      -4.2785377921    -1.6932616982    -4.1769591625
   58      H      -4.6311559296    -2.6350349753    -4.5769701480
   59      C      -3.1123214275    -1.6599003674    -3.4611130969
   60      C      -6.7210196677    -1.6004789326    -5.6171032078
   61      H      -7.6348725304    -1.2642470574    -6.0961062850
   62      H      -6.9628908324    -2.3398225785    -4.8530954786
   63      H      -6.0606404882    -2.0403781155    -6.3649023122
   64      C      -2.8576261398     2.1082997480    -2.6725857701
   65      H      -2.3033185616     1.9790938806    -1.7424047379
   66      H      -3.7039122093     2.7619633760    -2.4503733513
   67      C      -2.3831804867    -2.9415099526    -3.2008460185
   68      H      -1.3073065898    -2.7653035025    -3.2006050717
   69      H      -2.5925717305    -3.6461952728    -4.0085501914
   70      C      -1.9591031037     2.7694271324    -3.7183270671
   71      H      -1.0835859880     2.1581141510    -3.9346993426
   72      H      -1.6060174540     3.7340341673    -3.3555417862
   73      H      -2.4970149230     2.9361435398    -4.6524999239
   74      C      -2.8013281357    -3.5581565762    -1.8636885392
   75      H      -2.5724725873    -2.8941386744    -1.0316362870
   76      H      -2.2631944829    -4.4910294313    -1.7001039798
   77      H      -3.8698236736    -3.7757202093    -1.8445516556
   78      C       2.7310343973    -0.4924947979     0.0519828535
   79      C       3.5100647730     0.6562581943     0.2210444346
   80      C       4.7287872085     0.6044491848     0.8985998538
   81      H       5.2973458093     1.5196882463     1.0116986326
   82      C       5.1909737086    -0.5988576572     1.4126484242
   83      O       6.3564870424    -0.7489675934     2.0829324649
   84      C       4.4269242978    -1.7495328153     1.2438182403
   85      H       4.7946718780    -2.6879537103     1.6447132179
   86      C       3.2131002344    -1.7045973845     0.5766831761
   87      C       7.1500355118     0.3885515806     2.2987400644
   88      H       8.0225390661     0.0590560874     2.8594824931
   89      H       7.4905016337     0.8421239630     1.3621797931
   90      H       6.6292514949     1.1534328792     2.8839534492
   91      C       3.0257823499     1.9951711626    -0.2756740179
   92      H       2.4755471285     1.8740494873    -1.2116026297
   93      H       3.8837520349     2.6314812413    -0.5096553159
   94      C       2.4478498455    -2.9906173179     0.3858017413
   95      H       1.3734356872    -2.8023338254     0.4457195424
   96      H       2.6815969930    -3.6767911125     1.2041212552
   97      C       2.7644349001    -3.6714185593    -0.9447379597
   98      H       2.4864848028    -3.0401639817    -1.7887125899
   99      H       3.8295149494    -3.8906213329    -1.0306074223
  100      H       2.2197659424    -4.6122364783    -1.0407017777
  101      C       2.1333462607     2.7057398154     0.7400061656
  102      H       1.2348092891     2.1247034935     0.9480612974
  103      H       2.6563165737     2.8588370823     1.6850758775
  104      H       1.8180065678     3.6818939607     0.3681144631
 ----------------------------------------------------------------

   17   -2280.6318899098      7.77E-09 Convergence criterion met
 Total energy in the final basis set = -2280.63188991
 Final energy is   -2280.63188990979
 **  OPTIMIZATION CONVERGED  **

                    Orbital Energies (a.u.)
 --------------------------------------------------------------

 Alpha MOs
 -- Occupied --
-19.613 -19.512 -10.591 -10.533 -10.513 -10.502 -10.502 -10.495
-10.494 -10.485 -10.476 -10.456 -10.452 -10.451 -10.450 -10.449
-10.449 -10.447 -10.447 -10.447 -10.446 -10.446 -10.446 -10.446
-10.446 -10.445 -10.445 -10.445 -10.445 -10.444 -10.444 -10.438
-10.438 -10.437 -10.437 -10.436 -10.436 -10.434 -10.433 -10.433
-10.431 -10.431 -10.431 -10.430 -10.430 -10.417 -10.416 -10.415
-10.415 -10.414 -10.413 -10.406 -10.405 -10.405 -10.404 -10.395
 -6.908  -6.899  -1.272  -1.168  -1.015  -0.998  -0.998  -0.942
 -0.940  -0.936  -0.933  -0.918  -0.918  -0.916  -0.888  -0.880
 -0.870  -0.860  -0.849  -0.843  -0.837  -0.836  -0.832  -0.832
 -0.826  -0.805  -0.801  -0.796  -0.795  -0.785  -0.784  -0.757
 -0.749  -0.736  -0.717  -0.714  -0.711  -0.703  -0.700  -0.694
 -0.687  -0.673  -0.669  -0.663  -0.663  -0.647  -0.637  -0.636
 -0.628  -0.628  -0.617  -0.613  -0.605  -0.598  -0.579  -0.577
 -0.572  -0.568  -0.567  -0.562  -0.559  -0.556  -0.546  -0.542
 -0.531  -0.528  -0.523  -0.522  -0.521  -0.511  -0.511  -0.507
 -0.504  -0.501  -0.492  -0.490  -0.488  -0.485  -0.484  -0.480
 -0.479  -0.476  -0.473  -0.473  -0.469  -0.469  -0.468  -0.465
 -0.464  -0.463  -0.462  -0.457  -0.451  -0.450  -0.446  -0.445
 -0.440  -0.436  -0.428  -0.426  -0.423  -0.419  -0.418  -0.416
 -0.414  -0.411  -0.407  -0.404  -0.404  -0.401  -0.398  -0.396
 -0.392  -0.386  -0.383  -0.382  -0.382  -0.381  -0.377  -0.374
 -0.373  -0.365  -0.359  -0.357  -0.356  -0.345  -0.343  -0.334
 -0.331  -0.329  -0.319  -0.307  -0.304  -0.299  -0.284  -0.282
 -0.269  -0.259  -0.251  -0.241  -0.238  -0.232  -0.152

 Beta MOs
 -- Occupied --
-19.608 -19.512 -10.588 -10.534 -10.512 -10.503 -10.495 -10.493
-10.493 -10.485 -10.476 -10.456 -10.452 -10.451 -10.451 -10.449
-10.448 -10.448 -10.447 -10.447 -10.447 -10.447 -10.446 -10.446
-10.446 -10.445 -10.445 -10.444 -10.444 -10.443 -10.443 -10.438
-10.438 -10.436 -10.436 -10.435 -10.435 -10.434 -10.433 -10.432
-10.431 -10.431 -10.431 -10.431 -10.430 -10.417 -10.416 -10.415
-10.414 -10.413 -10.413 -10.405 -10.405 -10.404 -10.404 -10.395
 -6.904  -6.897  -1.261  -1.168  -1.005  -0.998  -0.998  -0.941
 -0.938  -0.936  -0.931  -0.917  -0.917  -0.907  -0.886  -0.879
 -0.870  -0.859  -0.848  -0.839  -0.835  -0.835  -0.831  -0.831
 -0.816  -0.804  -0.798  -0.794  -0.794  -0.785  -0.782  -0.757
 -0.745  -0.732  -0.715  -0.711  -0.710  -0.702  -0.697  -0.694
 -0.686  -0.672  -0.667  -0.662  -0.658  -0.645  -0.635  -0.634
 -0.627  -0.627  -0.613  -0.613  -0.593  -0.585  -0.577  -0.577
 -0.570  -0.568  -0.566  -0.560  -0.557  -0.553  -0.545  -0.540
 -0.528  -0.526  -0.522  -0.521  -0.521  -0.510  -0.510  -0.505
 -0.500  -0.495  -0.490  -0.488  -0.486  -0.484  -0.484  -0.477
 -0.476  -0.473  -0.472  -0.470  -0.468  -0.467  -0.467  -0.465
 -0.463  -0.462  -0.459  -0.454  -0.449  -0.449  -0.444  -0.440
 -0.438  -0.435  -0.426  -0.425  -0.421  -0.418  -0.415  -0.414
 -0.411  -0.409  -0.403  -0.401  -0.399  -0.398  -0.395  -0.392
 -0.385  -0.384  -0.381  -0.380  -0.380  -0.380  -0.376  -0.373
 -0.371  -0.364  -0.355  -0.351  -0.350  -0.342  -0.341  -0.330
 -0.328  -0.317  -0.316  -0.299  -0.295  -0.281  -0.280  -0.259
 -0.258  -0.244  -0.238  -0.232  -0.231

          Ground-State Mulliken Net Atomic Charges

     Atom                 Charge (a.u.)    Spin (a.u.)
  --------------------------------------------------------
      1 C                    -0.145045       0.083526
      2 C                    -0.408238      -0.069213
      3 H                     0.232547       0.002935
      4 C                     0.094831       0.115568
      5 C                     0.066537       0.005694
      6 C                    -0.403749       0.022048
      7 H                     0.192345      -0.003415
      8 C                    -0.124018       0.003394
      9 C                     0.189331      -0.060980
     10 C                    -0.402963       0.087599
     11 H                     0.229476      -0.005151
     12 C                    -0.075200       0.022251
     13 C                     0.240274      -0.035196
     14 C                     0.189659      -0.034828
     15 C                    -0.394776       0.055903
     16 H                     0.211692      -0.003314
     17 C                    -0.213176      -0.053439
     18 H                     0.231552       0.002581
     19 C                    -0.354684       0.079108
     20 H                     0.225205      -0.004696
     21 C                    -0.217174      -0.038994
     22 H                     0.227707       0.001967
     23 C                    -0.349171       0.052823
     24 H                     0.225389      -0.003075
     25 B                     0.500383       0.382680
     26 C                    -0.122518       0.000060
     27 C                    -0.403290       0.021136
     28 H                     0.191318      -0.003841
     29 C                     0.066732       0.006597
     30 C                     0.095383       0.112453
     31 C                    -0.407053      -0.068964
     32 H                     0.232964       0.002915
     33 C                    -0.147830       0.082977
     34 C                     0.190010      -0.034253
     35 C                    -0.396292       0.055061
     36 H                     0.210218      -0.003269
     37 C                    -0.075243       0.021426
     38 C                     0.239592      -0.034288
     39 C                     0.190249      -0.059618
     40 C                    -0.404546       0.085227
     41 H                     0.229031      -0.005010
     42 C                    -0.216665      -0.038217
     43 H                     0.227307       0.001927
     44 C                    -0.348794       0.051750
     45 H                     0.225491      -0.003012
     46 C                    -0.212705      -0.051920
     47 H                     0.231326       0.002510
     48 C                    -0.354723       0.076383
     49 H                     0.225254      -0.004533
     50 B                     0.556018       0.254154
     51 C                    -0.120549       0.500358
     52 C                     0.092051      -0.084380
     53 C                    -0.356480       0.114202
     54 H                     0.275565      -0.007225
     55 C                     0.464595       0.222276
     56 O                    -0.394324       0.134746
     57 C                    -0.416469       0.014626
     58 H                     0.276420      -0.002370
     59 C                     0.103004       0.034019
     60 C                    -0.442101      -0.013595
     61 H                     0.281169      -0.000009
     62 H                     0.250748       0.008945
     63 H                     0.250805       0.008943
     64 C                    -0.549680       0.006623
     65 H                     0.293858      -0.002801
     66 H                     0.243814       0.000202
     67 C                    -0.552873      -0.001508
     68 H                     0.301516      -0.000782
     69 H                     0.243031       0.001382
     70 C                    -0.659667       0.001081
     71 H                     0.266738      -0.000608
     72 H                     0.241078      -0.000060
     73 H                     0.213204      -0.000214
     74 C                    -0.659808       0.006586
     75 H                     0.271971      -0.000977
     76 H                     0.243743       0.001067
     77 H                     0.212446      -0.000456
     78 C                    -0.197441      -0.025572
     79 C                     0.068452       0.005482
     80 C                    -0.437917      -0.001900
     81 H                     0.227415       0.000359
     82 C                     0.389537       0.002707
     83 O                    -0.464184       0.000531
     84 C                    -0.391187      -0.002007
     85 H                     0.219391       0.000395
     86 C                     0.066569       0.005152
     87 C                    -0.413421      -0.000070
     88 H                     0.241014       0.000003
     89 H                     0.207784       0.000055
     90 H                     0.208169       0.000048
     91 C                    -0.543313       0.002467
     92 H                     0.257508      -0.001691
     93 H                     0.220319       0.000274
     94 C                    -0.543554       0.002315
     95 H                     0.255253      -0.001671
     96 H                     0.224344       0.000282
     97 C                    -0.654091       0.000240
     98 H                     0.248673      -0.000483
     99 H                     0.215163      -0.000077
    100 H                     0.210501      -0.000010
    101 C                    -0.652390       0.000211
    102 H                     0.249722      -0.000441
    103 H                     0.211449      -0.000084
    104 H                     0.212462      -0.000011
  --------------------------------------------------------
  Sum of atomic charges =     0.000000

                    Cartesian Multipole Moments
 -----------------------------------------------------------------
    Charge (ESU x 10^10)
                -0.0000
    Dipole Moment (Debye)
         X     -13.6916      Y      -0.8220      Z      -8.4260
       Tot      16.0976
    Quadrupole Moments (Debye-Ang)
        XX    -247.3800     XY      27.7967     YY    -331.7886
        XZ      74.9725     YZ      17.9470     ZZ    -284.9269

 Total job time:  34933.40s(wall), 105381.40s(cpu)
        *  Thank you very much for using Q-Chem.  Have a nice day.  *
