 Q-Chem 5.0, Q-Chem, Inc., Pleasanton, CA (2017)
 Q-Chem 5.0.1 for Intel X86 EM64T Linux

User input:
--------------------------------------------------------------
$rem
threads 8
jobtype opt
method PBEh-3c
basis def2-mSVP
mem_static      1024
mem_total       8000
sym_ignore      true
unrestricted true
scf_algorithm	diis
scf_max_cycles	250
solvent_method  pcm
geom_opt_tol_energy 25
geom_opt_tol_gradient 75
$end

$pcm
theory  iefpcm
$end

$solvent
dielectric      2.38
$end

$molecule
read uincoords.mol
$end
--------------------------------------------------------------

   24   -2280.6325846419      7.30E-09 Convergence criterion met
 Total energy in the final basis set = -2280.63258464
   18   -2280.6342270143      7.08E-09 Convergence criterion met
 Total energy in the final basis set = -2280.63422701
   18   -2280.6344039326      8.80E-09 Convergence criterion met
 Total energy in the final basis set = -2280.63440393
   17   -2280.6349212717      9.37E-09 Convergence criterion met
 Total energy in the final basis set = -2280.63492127
   17   -2280.6351619458      8.54E-09 Convergence criterion met
 Total energy in the final basis set = -2280.63516195
   17   -2280.6351246098      8.49E-09 Convergence criterion met
 Total energy in the final basis set = -2280.63512461
   17   -2280.6352965813      7.44E-09 Convergence criterion met
 Total energy in the final basis set = -2280.63529658
   17   -2280.6352435161      7.49E-09 Convergence criterion met
   16   -2280.6352911802      9.48E-09 Convergence criterion met
 Total energy in the final basis set = -2280.63529118
   16   -2280.6353083552      9.41E-09 Convergence criterion met
 Total energy in the final basis set = -2280.63530836
   16   -2280.6353132246      9.66E-09 Convergence criterion met
 Total energy in the final basis set = -2280.63531322
   16   -2280.6353153175      8.98E-09 Convergence criterion met
 Total energy in the final basis set = -2280.63531532
   16   -2280.6353158260      8.96E-09 Convergence criterion met
 Total energy in the final basis set = -2280.63531583
   16   -2280.6353168744      8.94E-09 Convergence criterion met
 Total energy in the final basis set = -2280.63531687

             Standard Nuclear Orientation (Angstroms)
    I     Atom           X                Y                Z
 ----------------------------------------------------------------
    1      C       0.0224983788    -0.3983320398     0.0775064817
    2      C       0.0185643081    -0.3836891560     1.4889642919
    3      H       0.9663729911    -0.3971425366     2.0172375885
    4      C      -1.1628359783    -0.3498223476     2.1949678525
    5      C      -2.4011336795    -0.3245633293     1.4876635719
    6      C      -2.4250839041    -0.3358343888     0.1189158080
    7      H      -3.3820940734    -0.3151595977    -0.3959748848
    8      C      -1.2236829271    -0.3708627898    -0.6218114363
    9      C      -1.4718886406    -0.3302093744     3.6252495976
   10      C      -0.7432308994    -0.3397327049     4.7877840588
   11      H       0.3392203509    -0.3667649946     4.7828464231
   12      C      -2.8798786491    -0.2945500309     3.7281217351
   13      C      -3.5893450530    -0.2682353067     4.9249849175
   14      C      -3.4884837314    -0.2887010539     2.4582801362
   15      C      -4.8581498063    -0.2540798157     2.3780341505
   16      H      -5.3756874693    -0.2468656623     1.4260411106
   17      C      -1.4368282102    -0.3135398589     6.0214552830
   18      H      -0.8570862797    -0.3213725113     6.9355857387
   19      C      -2.8099151966    -0.2788458519     6.1068781186
   20      H      -3.2922908327    -0.2595622187     7.0764634075
   21      C      -5.6023840467    -0.2269334393     3.5790550334
   22      H      -6.6832368308    -0.1996536304     3.5193068753
   23      C      -5.0017735953    -0.2336668378     4.8177019584
   24      H      -5.6124755924    -0.2119490337     5.7121673089
   25      B      -1.2368892508    -0.3812113278    -2.1484294518
   26      C       0.0681776463    -0.3926584035    -2.9389548271
   27      C       0.0665842691    -0.3899905933    -4.3500912385
   28      H      -0.8721327513    -0.3610377837    -4.8971767080
   29      C       1.2424549589    -0.4249226299    -5.0484073673
   30      C       2.4936981739    -0.4686663656    -4.3668577860
   31      C       2.5137804102    -0.4673071936    -2.9915727794
   32      H       3.4597333566    -0.5064167585    -2.4620227032
   33      C       1.3154950273    -0.4241116443    -2.2467097127
   34      C       1.4972989236    -0.4392285339    -6.4849089604
   35      C       0.7127619270    -0.4147272884    -7.6111803702
   36      H      -0.3682292579    -0.3689412996    -7.5542418841
   37      C       2.8955345538    -0.4968993742    -6.6344871394
   38      C       3.5410476161    -0.5347243700    -7.8684874154
   39      C       3.5475633807    -0.5174060070    -5.3830979809
   40      C       4.9184680313    -0.5798999084    -5.3774414275
   41      H       5.4843449583    -0.6019551714    -4.4547004581
   42      C       1.3426531633    -0.4501950890    -8.8762182006
   43      H       0.7238692209    -0.4304757709    -9.7646928145
   44      C       2.7104312348    -0.5090982068    -9.0157346755
   45      H       3.1518892902    -0.5358317043   -10.0047396204
   46      C       5.6032399744    -0.6187853342    -6.6159182936
   47      H       6.6845746420    -0.6683367664    -6.6026409894
   48      C       4.9544032427    -0.5975982883    -7.8290119776
   49      H       5.5233075106    -0.6304498603    -8.7503063226
   50      B       1.3495855047    -0.4347182701    -0.7063100721
   51      C      -2.6081125891    -0.4150845674    -2.9300499292
   52      C      -3.3647471943     0.7842541692    -3.1586962822
   53      C      -4.5340524183     0.7287688003    -3.8579107575
   54      H      -5.1229386093     1.6202152314    -4.0394284526
   55      C      -5.0088434038    -0.5047369130    -4.3780435482
   56      O      -6.1341172256    -0.4351584890    -5.0358790674
   57      C      -4.2822383995    -1.6942756100    -4.1727468090
   58      H      -4.6376996790    -2.6362430003    -4.5697850371
   59      C      -3.1162103240    -1.6613657120    -3.4571587520
   60      C      -6.7254837764    -1.5992122823    -5.6131382371
   61      H      -7.6386248428    -1.2609036970    -6.0918471652
   62      H      -6.9682749131    -2.3351451266    -4.8463308105
   63      H      -6.0666313335    -2.0424870234    -6.3600995578
   64      C      -2.8498544381     2.1094289418    -2.6831977667
   65      H      -2.2911959046     1.9820425390    -1.7553742954
   66      H      -3.6946381410     2.7640008885    -2.4581930755
   67      C      -2.3907875696    -2.9444034304    -3.1924248238
   68      H      -1.3145056625    -2.7706704454    -3.1874143660
   69      H      -2.5980847479    -3.6492206390    -4.0004637882
   70      C      -1.9565126572     2.7683123984    -3.7346338897
   71      H      -1.0823344643     2.1562771093    -3.9544802062
   72      H      -1.6013941459     3.7336048676    -3.3756023029
   73      H      -2.4992781607     2.9331548768    -4.6663166825
   74      C      -2.8163400348    -3.5594235041    -1.8569787155
   75      H      -2.5903659847    -2.8953299101    -1.0241397116
   76      H      -2.2808317763    -4.4932799380    -1.6903027010
   77      H      -3.8853475864    -3.7747740291    -1.8430361935
   78      C       2.7323909620    -0.4926444804     0.0523302080
   79      C       3.5109544689     0.6562773888     0.2231103393
   80      C       4.7295143256     0.6044938851     0.9012317779
   81      H       5.2976285237     1.5198642716     1.0155915888
   82      C       5.1921276611    -0.5991546775     1.4143121441
   83      O       6.3573645056    -0.7492356582     2.0850778211
   84      C       4.4286611145    -1.7500981399     1.2437792694
   85      H       4.7963628056    -2.6890148618     1.6437313271
   86      C       3.2150614710    -1.7050436991     0.5758759224
   87      C       7.1506655976     0.3890315256     2.3023336990
   88      H       8.0230030979     0.0594259814     2.8631891151
   89      H       7.4911032173     0.8432867130     1.3662223933
   90      H       6.6289904358     1.1528956769     2.8878799558
   91      C       3.0265284956     1.9956293764    -0.2723502848
   92      H       2.4753948297     1.8751443710    -1.2078221658
   93      H       3.8843879650     2.6320314203    -0.5064002744
   94      C       2.4508749056    -2.9914479882     0.3831715325
   95      H       1.3762770582    -2.8037762768     0.4414798371
   96      H       2.6839191094    -3.6781233058     1.2012634129
   97      C       2.7696944756    -3.6711396291    -0.9474223656
   98      H       2.4933480955    -3.0388927674    -1.7912095357
   99      H       3.8348793739    -3.8906470233    -1.0316017768
  100      H       2.2248489752    -4.6116466667    -1.0452427444
  101      C       2.1349476302     2.7056549274     0.7444822205
  102      H       1.2368082310     2.1241946797     0.9532016186
  103      H       2.6588679056     2.8587401257     1.6890562031
  104      H       1.8189200533     3.6817789733     0.3731189913
 ----------------------------------------------------------------

   16   -2280.6353192595      8.90E-09 Convergence criterion met
 Total energy in the final basis set = -2280.63531926
 Final energy is   -2280.63531925949
 **  OPTIMIZATION CONVERGED  **

                    Orbital Energies (a.u.)
 --------------------------------------------------------------

 Alpha MOs
 -- Occupied --
-19.612 -19.513 -10.590 -10.530 -10.512 -10.501 -10.501 -10.494
-10.492 -10.487 -10.476 -10.455 -10.452 -10.451 -10.451 -10.450
-10.450 -10.448 -10.448 -10.447 -10.447 -10.447 -10.447 -10.447
-10.447 -10.446 -10.446 -10.446 -10.446 -10.445 -10.445 -10.439
-10.439 -10.438 -10.438 -10.437 -10.437 -10.434 -10.434 -10.434
-10.432 -10.432 -10.432 -10.431 -10.430 -10.419 -10.417 -10.416
-10.415 -10.415 -10.415 -10.407 -10.406 -10.406 -10.405 -10.397
 -6.908  -6.900  -1.270  -1.169  -1.013  -0.999  -0.999  -0.943
 -0.940  -0.937  -0.932  -0.919  -0.919  -0.915  -0.889  -0.881
 -0.871  -0.859  -0.850  -0.843  -0.837  -0.837  -0.833  -0.832
 -0.825  -0.806  -0.802  -0.797  -0.796  -0.786  -0.785  -0.759
 -0.748  -0.734  -0.718  -0.714  -0.712  -0.704  -0.699  -0.695
 -0.688  -0.674  -0.668  -0.664  -0.664  -0.648  -0.637  -0.636
 -0.629  -0.628  -0.616  -0.614  -0.603  -0.597  -0.579  -0.578
 -0.573  -0.569  -0.568  -0.562  -0.559  -0.557  -0.547  -0.541
 -0.530  -0.528  -0.523  -0.523  -0.522  -0.511  -0.511  -0.506
 -0.504  -0.501  -0.492  -0.490  -0.489  -0.486  -0.485  -0.480
 -0.479  -0.477  -0.474  -0.473  -0.470  -0.470  -0.469  -0.466
 -0.464  -0.464  -0.462  -0.457  -0.451  -0.450  -0.446  -0.445
 -0.440  -0.437  -0.429  -0.425  -0.424  -0.420  -0.418  -0.416
 -0.415  -0.411  -0.407  -0.404  -0.403  -0.401  -0.399  -0.395
 -0.393  -0.387  -0.384  -0.383  -0.383  -0.382  -0.378  -0.375
 -0.374  -0.366  -0.360  -0.358  -0.357  -0.346  -0.344  -0.333
 -0.332  -0.329  -0.320  -0.308  -0.305  -0.300  -0.285  -0.283
 -0.270  -0.260  -0.252  -0.242  -0.239  -0.234  -0.152

 Beta MOs
 -- Occupied --
-19.607 -19.513 -10.587 -10.530 -10.511 -10.502 -10.494 -10.492
-10.492 -10.487 -10.476 -10.454 -10.452 -10.452 -10.451 -10.449
-10.449 -10.448 -10.448 -10.448 -10.448 -10.448 -10.447 -10.447
-10.446 -10.446 -10.446 -10.445 -10.445 -10.444 -10.444 -10.439
-10.439 -10.437 -10.437 -10.436 -10.436 -10.434 -10.433 -10.433
-10.432 -10.432 -10.432 -10.431 -10.430 -10.419 -10.417 -10.416
-10.415 -10.415 -10.414 -10.406 -10.406 -10.405 -10.405 -10.397
 -6.905  -6.898  -1.260  -1.169  -1.003  -0.999  -0.999  -0.942
 -0.939  -0.937  -0.930  -0.918  -0.918  -0.906  -0.887  -0.880
 -0.871  -0.857  -0.849  -0.838  -0.836  -0.835  -0.832  -0.832
 -0.815  -0.805  -0.799  -0.795  -0.795  -0.786  -0.783  -0.758
 -0.744  -0.730  -0.716  -0.712  -0.711  -0.703  -0.695  -0.695
 -0.688  -0.673  -0.666  -0.663  -0.659  -0.646  -0.636  -0.632
 -0.628  -0.628  -0.614  -0.611  -0.593  -0.583  -0.578  -0.577
 -0.571  -0.569  -0.567  -0.561  -0.558  -0.553  -0.546  -0.538
 -0.527  -0.526  -0.522  -0.522  -0.521  -0.511  -0.510  -0.504
 -0.500  -0.494  -0.490  -0.489  -0.486  -0.485  -0.485  -0.477
 -0.476  -0.473  -0.473  -0.469  -0.469  -0.468  -0.468  -0.466
 -0.464  -0.462  -0.458  -0.454  -0.450  -0.449  -0.445  -0.439
 -0.438  -0.436  -0.427  -0.424  -0.422  -0.420  -0.415  -0.414
 -0.412  -0.410  -0.402  -0.402  -0.400  -0.399  -0.394  -0.393
 -0.386  -0.384  -0.381  -0.381  -0.381  -0.380  -0.377  -0.374
 -0.371  -0.365  -0.356  -0.352  -0.351  -0.344  -0.342  -0.331
 -0.327  -0.318  -0.317  -0.300  -0.296  -0.282  -0.281  -0.260
 -0.260  -0.245  -0.239  -0.233  -0.232

          Ground-State Mulliken Net Atomic Charges

     Atom                 Charge (a.u.)    Spin (a.u.)
  --------------------------------------------------------
      1 C                    -0.144815       0.081592
      2 C                    -0.409211      -0.068077
      3 H                     0.232774       0.002876
      4 C                     0.092971       0.112985
      5 C                     0.064516       0.008590
      6 C                    -0.404457       0.019067
      7 H                     0.195655      -0.003247
      8 C                    -0.125002       0.004442
      9 C                     0.187476      -0.060481
     10 C                    -0.404405       0.086994
     11 H                     0.231813      -0.005107
     12 C                    -0.075624       0.022149
     13 C                     0.237464      -0.035234
     14 C                     0.187807      -0.035569
     15 C                    -0.396298       0.056913
     16 H                     0.215283      -0.003366
     17 C                    -0.215804      -0.053163
     18 H                     0.234178       0.002565
     19 C                    -0.356237       0.078475
     20 H                     0.228118      -0.004649
     21 C                    -0.219757      -0.039431
     22 H                     0.230700       0.001980
     23 C                    -0.350790       0.053663
     24 H                     0.228314      -0.003119
     25 B                     0.502517       0.378775
     26 C                    -0.123370       0.002192
     27 C                    -0.403912       0.018363
     28 H                     0.194754      -0.003682
     29 C                     0.064743       0.009338
     30 C                     0.093488       0.110892
     31 C                    -0.408027      -0.068142
     32 H                     0.233235       0.002872
     33 C                    -0.147505       0.081515
     34 C                     0.188194      -0.035147
     35 C                    -0.397828       0.056302
     36 H                     0.213892      -0.003335
     37 C                    -0.075656       0.021597
     38 C                     0.236769      -0.034595
     39 C                     0.188385      -0.059454
     40 C                    -0.405944       0.085254
     41 H                     0.231405      -0.005005
     42 C                    -0.219269      -0.038857
     43 H                     0.230359       0.001951
     44 C                    -0.350398       0.052833
     45 H                     0.228447      -0.003071
     46 C                    -0.215327      -0.052028
     47 H                     0.233988       0.002512
     48 C                    -0.356236       0.076469
     49 H                     0.228215      -0.004529
     50 B                     0.552800       0.256351
     51 C                    -0.121882       0.504291
     52 C                     0.091052      -0.090103
     53 C                    -0.356454       0.120757
     54 H                     0.278264      -0.007553
     55 C                     0.465729       0.219896
     56 O                    -0.393174       0.138054
     57 C                    -0.416029       0.020511
     58 H                     0.280282      -0.002666
     59 C                     0.102263       0.027062
     60 C                    -0.443851      -0.013813
     61 H                     0.282542      -0.000005
     62 H                     0.252896       0.009089
     63 H                     0.252976       0.009099
     64 C                    -0.549761       0.006901
     65 H                     0.292421      -0.002861
     66 H                     0.245698       0.000161
     67 C                    -0.553044      -0.001115
     68 H                     0.299859      -0.000926
     69 H                     0.245297       0.001345
     70 C                    -0.660376       0.000820
     71 H                     0.264844      -0.000572
     72 H                     0.241421      -0.000111
     73 H                     0.214406      -0.000211
     74 C                    -0.660550       0.006281
     75 H                     0.269905      -0.000937
     76 H                     0.244120       0.001022
     77 H                     0.213845      -0.000444
     78 C                    -0.196788      -0.025942
     79 C                     0.066890       0.005404
     80 C                    -0.439623      -0.001877
     81 H                     0.230141       0.000360
     82 C                     0.388196       0.002526
     83 O                    -0.465660       0.000451
     84 C                    -0.393483      -0.002001
     85 H                     0.220942       0.000397
     86 C                     0.064980       0.005126
     87 C                    -0.415460      -0.000061
     88 H                     0.242466       0.000003
     89 H                     0.209245       0.000049
     90 H                     0.209581       0.000042
     91 C                    -0.543312       0.002496
     92 H                     0.257236      -0.001706
     93 H                     0.221477       0.000279
     94 C                    -0.543652       0.002344
     95 H                     0.255225      -0.001690
     96 H                     0.225280       0.000288
     97 C                    -0.655210       0.000229
     98 H                     0.248159      -0.000482
     99 H                     0.215368      -0.000077
    100 H                     0.211860      -0.000010
    101 C                    -0.653606       0.000200
    102 H                     0.249069      -0.000441
    103 H                     0.211913      -0.000084
    104 H                     0.213684      -0.000012
  --------------------------------------------------------
  Sum of atomic charges =     0.000000

                    Cartesian Multipole Moments
 -----------------------------------------------------------------
    Charge (ESU x 10^10)
                -0.0000
    Dipole Moment (Debye)
         X     -14.1425      Y      -0.8349      Z      -8.7058
       Tot      16.6282
    Quadrupole Moments (Debye-Ang)
        XX    -244.7994     XY      28.5159     YY    -331.4622
        XZ      76.8845     YZ      18.3419     ZZ    -283.0864

 Total job time:  38029.90s(wall), 110440.01s(cpu)
        *  Thank you very much for using Q-Chem.  Have a nice day.  *
