 Q-Chem 5.0, Q-Chem, Inc., Pleasanton, CA (2017)
 Q-Chem 5.0.1 for Intel X86 EM64T Linux

User input:
--------------------------------------------------------------
$rem
threads 8
jobtype opt
method PBEh-3c
basis def2-mSVP
mem_static      1024
mem_total       8000
sym_ignore      true
unrestricted true
scf_algorithm	diis
scf_max_cycles	2500
solvent_method  pcm
geom_opt_tol_energy 25
geom_opt_tol_gradient 75
$end

$pcm
theory  iefpcm
$end

$solvent
dielectric      8.93
$end

$molecule
read uincoords.mol
$end
--------------------------------------------------------------

   21   -2280.6522412347      9.16E-09 Convergence criterion met
 Total energy in the final basis set = -2280.65224123
   19   -2280.6541837226      7.13E-09 Convergence criterion met
 Total energy in the final basis set = -2280.65418372
   18   -2280.6544194388      9.95E-09 Convergence criterion met
 Total energy in the final basis set = -2280.65441944
   18   -2280.6549579013      8.38E-09 Convergence criterion met
 Total energy in the final basis set = -2280.65495790
   18   -2280.6552441425      8.74E-09 Convergence criterion met
 Total energy in the final basis set = -2280.65524414
   18   -2280.6552234122      8.10E-09 Convergence criterion met
 Total energy in the final basis set = -2280.65522341
   18   -2280.6553591789      8.91E-09 Convergence criterion met
 Total energy in the final basis set = -2280.65535918
   18   -2280.6552859178      9.04E-09 Convergence criterion met
 Total energy in the final basis set = -2280.65528592
   18   -2280.6553365737      9.09E-09 Convergence criterion met
 Total energy in the final basis set = -2280.65533657
   18   -2280.6553388732      9.35E-09 Convergence criterion met
 Total energy in the final basis set = -2280.65533887

             Standard Nuclear Orientation (Angstroms)
    I     Atom           X                Y                Z
 ----------------------------------------------------------------
    1      C       0.0307437616    -0.4003927367     0.0818629133
    2      C       0.0262672843    -0.3863387143     1.4945053147
    3      H       0.9726908289    -0.3965684693     2.0255749116
    4      C      -1.1554571063    -0.3565286552     2.2001473986
    5      C      -2.3949026086    -0.3368421257     1.4924560630
    6      C      -2.4187482393    -0.3493463322     0.1226634399
    7      H      -3.3751336540    -0.3329697599    -0.3928226502
    8      C      -1.2173590733    -0.3807016851    -0.6174505462
    9      C      -1.4643089418    -0.3359314727     3.6311748470
   10      C      -0.7349896994    -0.3399031695     4.7942444357
   11      H       0.3477274211    -0.3623289256     4.7901703108
   12      C      -2.8728105458    -0.3056059219     3.7333653992
   13      C      -3.5825959501    -0.2794394682     4.9307968340
   14      C      -3.4820313392    -0.3043806928     2.4630960924
   15      C      -4.8526341191    -0.2755656636     2.3823913410
   16      H      -5.3703384055    -0.2725481845     1.4304766513
   17      C      -1.4291294160    -0.3136460327     6.0282368478
   18      H      -0.8494061018    -0.3169216910     6.9424513162
   19      C      -2.8031656487    -0.2843023875     6.1133194204
   20      H      -3.2861943266    -0.2647963745     7.0826179428
   21      C      -5.5965494921    -0.2491083129     3.5843996231
   22      H      -6.6774661121    -0.2265765864     3.5242156558
   23      C      -4.9958910109    -0.2507085142     4.8238801921
   24      H      -5.6063121113    -0.2296175682     5.7185737476
   25      B      -1.2364582604    -0.3876267437    -2.1448008112
   26      C       0.0709457531    -0.3943683202    -2.9335838712
   27      C       0.0655399547    -0.4023977938    -4.3443473284
   28      H      -0.8746943205    -0.3877300137    -4.8884512482
   29      C       1.2407549172    -0.4307546023    -5.0458308493
   30      C       2.4950535258    -0.4550378431    -4.3666543926
   31      C       2.5186473365    -0.4485918904    -2.9913192939
   32      H       3.4678418995    -0.4751433569    -2.4665832598
   33      C       1.3210395541    -0.4158341049    -2.2426706631
   34      C       1.4920847042    -0.4504375682    -6.4826207207
   35      C       0.7033768802    -0.4432171161    -7.6071978355
   36      H      -0.3780230393    -0.4139626753    -7.5476438907
   37      C       2.8912008203    -0.4888659461    -6.6353982216
   38      C       3.5343117319    -0.5221506784    -7.8715167651
   39      C       3.5475698270    -0.4936027016    -5.3856702248
   40      C       4.9201210710    -0.5337574846    -5.3832603172
   41      H       5.4896464022    -0.5414140117    -4.4623549383
   42      C       1.3314258409    -0.4754021520    -8.8739693437
   43      H       0.7096643087    -0.4696274987    -9.7605339690
   44      C       2.7002768516    -0.5140549916    -9.0174235312
   45      H       3.1398527591    -0.5385160020   -10.0073371957
   46      C       5.6021434669    -0.5673429264    -6.6240221275
   47      H       6.6842109269    -0.5989742082    -6.6136459830
   48      C       4.9490740386    -0.5623147153    -7.8359746521
   49      H       5.5154469535    -0.5899954046    -8.7590527189
   50      B       1.3573332854    -0.4292846715    -0.7026137655
   51      C      -2.6096652896    -0.4163125163    -2.9292244323
   52      C      -3.3409710947     0.7893911356    -3.1889745950
   53      C      -4.5049534209     0.7396161303    -3.8974683465
   54      H      -5.0770862183     1.6369796193    -4.1023556566
   55      C      -4.9959791105    -0.4986954624    -4.3962213527
   56      O      -6.1090012886    -0.4254151339    -5.0646821804
   57      C      -4.2911409172    -1.6974098273    -4.1551111967
   58      H      -4.6595511495    -2.6418315404    -4.5344770399
   59      C      -3.1340423272    -1.6647615440    -3.4276180751
   60      C      -6.7192720726    -1.5924382828    -5.6277433124
   61      H      -7.6220503862    -1.2442015785    -6.1179874990
   62      H      -6.9771553800    -2.3074115907    -4.8471445578
   63      H      -6.0595551027    -2.0571315238    -6.3598507806
   64      C      -2.8119555858     2.1183308081    -2.7365820427
   65      H      -2.2363175386     1.9989531497    -1.8178978910
   66      H      -3.6506443054     2.7766242747    -2.5011245415
   67      C      -2.4379693178    -2.9560460287    -3.1186642050
   68      H      -1.3646879568    -2.7902125740    -3.0223173750
   69      H      -2.5817819302    -3.6509743203    -3.9482737743
   70      C      -1.9402547876     2.7677848235    -3.8110490774
   71      H      -1.0750354510     2.1494335609    -4.0492487513
   72      H      -1.5735319955     3.7344950208    -3.4671521943
   73      H      -2.5046770736     2.9278145718    -4.7304204527
   74      C      -2.9777457723    -3.5826482085    -1.8313732817
   75      H      -2.8375876205    -2.9200233391    -0.9779972661
   76      H      -2.4526516868    -4.5136169552    -1.6204287597
   77      H      -4.0415937804    -3.8056864150    -1.9180504523
   78      C       2.7422362895    -0.4881942047     0.0555948827
   79      C       3.5196418237     0.6609545196     0.2357963782
   80      C       4.7391437705     0.6073268230     0.9133140028
   81      H       5.3058301680     1.5227554302     1.0345560268
   82      C       5.2048521869    -0.5996828202     1.4173172973
   83      O       6.3700908243    -0.7518087051     2.0866033989
   84      C       4.4433665278    -1.7514080450     1.2374224510
   85      H       4.8113575333    -2.6940679152     1.6291443872
   86      C       3.2290064036    -1.7036175210     0.5691512109
   87      C       7.1640126993     0.3892235960     2.3121092871
   88      H       8.0368477658     0.0565656429     2.8698883356
   89      H       7.5015829499     0.8493069226     1.3785425989
   90      H       6.6401718101     1.1466842140     2.9028792536
   91      C       3.0339239230     2.0037141641    -0.2492651526
   92      H       2.4770483427     1.8883156646    -1.1819940422
   93      H       3.8906815462     2.6413961803    -0.4828995662
   94      C       2.4702978119    -2.9917805826     0.3655056216
   95      H       1.3947517332    -2.8066207083     0.4120983819
   96      H       2.6970529957    -3.6810929549     1.1830166863
   97      C       2.8045913778    -3.6664330694    -0.9639722354
   98      H       2.5420897725    -3.0278499028    -1.8076656680
   99      H       3.8699553719    -3.8904684886    -1.0346408059
  100      H       2.2573412540    -4.6040345273    -1.0741315959
  101      C       2.1481339014     2.7085501936     0.7762620136
  102      H       1.2533603981     2.1233136429     0.9901053349
  103      H       2.6793153682     2.8614355640     1.7168723293
  104      H       1.8266771256     3.6846526923     0.4097599502
 ----------------------------------------------------------------

   18   -2280.6553366710      9.24E-09 Convergence criterion met
 Total energy in the final basis set = -2280.65533667
 Final energy is   -2280.65533667099
 **  OPTIMIZATION CONVERGED  **

                    Orbital Energies (a.u.)
 --------------------------------------------------------------

 Alpha MOs
 -- Occupied --
-19.604 -19.521 -10.582 -10.513 -10.503 -10.496 -10.495 -10.493
-10.486 -10.483 -10.479 -10.458 -10.458 -10.455 -10.455 -10.454
-10.454 -10.453 -10.453 -10.453 -10.453 -10.452 -10.452 -10.452
-10.452 -10.451 -10.451 -10.450 -10.450 -10.450 -10.447 -10.447
-10.447 -10.446 -10.446 -10.442 -10.442 -10.442 -10.441 -10.441
-10.441 -10.440 -10.439 -10.431 -10.428 -10.427 -10.425 -10.425
-10.424 -10.420 -10.420 -10.415 -10.414 -10.414 -10.414 -10.406
 -6.914  -6.907  -1.262  -1.176  -1.006  -1.006  -1.005  -0.950
 -0.947  -0.946  -0.925  -0.925  -0.925  -0.907  -0.894  -0.887
 -0.880  -0.858  -0.852  -0.845  -0.843  -0.838  -0.838  -0.836
 -0.819  -0.813  -0.808  -0.802  -0.801  -0.794  -0.791  -0.765
 -0.743  -0.729  -0.723  -0.719  -0.717  -0.710  -0.703  -0.696
 -0.692  -0.679  -0.669  -0.668  -0.662  -0.654  -0.643  -0.635
 -0.634  -0.626  -0.623  -0.608  -0.596  -0.592  -0.584  -0.583
 -0.578  -0.576  -0.573  -0.565  -0.564  -0.559  -0.555  -0.533
 -0.530  -0.529  -0.528  -0.524  -0.518  -0.516  -0.515  -0.509
 -0.500  -0.498  -0.496  -0.495  -0.493  -0.491  -0.485  -0.483
 -0.483  -0.480  -0.479  -0.478  -0.477  -0.476  -0.473  -0.470
 -0.469  -0.468  -0.460  -0.455  -0.453  -0.453  -0.448  -0.445
 -0.445  -0.438  -0.432  -0.430  -0.428  -0.424  -0.424  -0.422
 -0.419  -0.415  -0.408  -0.407  -0.403  -0.403  -0.400  -0.399
 -0.394  -0.391  -0.390  -0.389  -0.389  -0.387  -0.384  -0.382
 -0.379  -0.374  -0.365  -0.365  -0.361  -0.354  -0.352  -0.340
 -0.333  -0.327  -0.325  -0.314  -0.308  -0.303  -0.292  -0.290
 -0.278  -0.270  -0.259  -0.249  -0.247  -0.243  -0.158

 Beta MOs
 -- Occupied --
-19.598 -19.521 -10.579 -10.514 -10.503 -10.496 -10.494 -10.488
-10.484 -10.483 -10.479 -10.459 -10.458 -10.455 -10.455 -10.454
-10.454 -10.453 -10.453 -10.452 -10.452 -10.452 -10.452 -10.451
-10.451 -10.451 -10.451 -10.450 -10.450 -10.449 -10.447 -10.446
-10.446 -10.445 -10.445 -10.442 -10.442 -10.441 -10.441 -10.441
-10.441 -10.440 -10.440 -10.430 -10.428 -10.427 -10.425 -10.425
-10.424 -10.420 -10.419 -10.414 -10.414 -10.414 -10.413 -10.406
 -6.911  -6.904  -1.250  -1.176  -1.006  -1.005  -0.996  -0.949
 -0.946  -0.945  -0.924  -0.924  -0.923  -0.899  -0.892  -0.886
 -0.880  -0.857  -0.849  -0.843  -0.842  -0.837  -0.837  -0.832
 -0.813  -0.811  -0.804  -0.800  -0.798  -0.794  -0.789  -0.765
 -0.738  -0.725  -0.722  -0.717  -0.716  -0.709  -0.703  -0.696
 -0.688  -0.678  -0.668  -0.664  -0.660  -0.652  -0.642  -0.634
 -0.634  -0.623  -0.622  -0.603  -0.592  -0.583  -0.582  -0.577
 -0.575  -0.572  -0.568  -0.564  -0.563  -0.555  -0.554  -0.531
 -0.528  -0.528  -0.527  -0.522  -0.516  -0.515  -0.514  -0.506
 -0.498  -0.496  -0.496  -0.493  -0.490  -0.488  -0.484  -0.482
 -0.481  -0.479  -0.476  -0.476  -0.476  -0.476  -0.473  -0.469
 -0.467  -0.460  -0.458  -0.455  -0.453  -0.449  -0.445  -0.443
 -0.442  -0.433  -0.430  -0.429  -0.427  -0.423  -0.423  -0.418
 -0.417  -0.414  -0.407  -0.406  -0.402  -0.400  -0.398  -0.393
 -0.389  -0.388  -0.388  -0.387  -0.386  -0.384  -0.381  -0.380
 -0.374  -0.371  -0.362  -0.359  -0.357  -0.351  -0.350  -0.338
 -0.325  -0.324  -0.319  -0.307  -0.303  -0.288  -0.288  -0.270
 -0.267  -0.252  -0.246  -0.242  -0.240

          Ground-State Mulliken Net Atomic Charges

     Atom                 Charge (a.u.)    Spin (a.u.)
  --------------------------------------------------------
      1 C                    -0.143498       0.070926
      2 C                    -0.414534      -0.060499
      3 H                     0.233519       0.002442
      4 C                     0.081154       0.099899
      5 C                     0.051576       0.026003
      6 C                    -0.409102       0.002723
      7 H                     0.218561      -0.002322
      8 C                    -0.131344       0.015204
      9 C                     0.175924      -0.058284
     10 C                    -0.411718       0.084901
     11 H                     0.244351      -0.004946
     12 C                    -0.078637       0.022586
     13 C                     0.219982      -0.036320
     14 C                     0.176193      -0.040876
     15 C                    -0.403284       0.063865
     16 H                     0.237729      -0.003721
     17 C                    -0.230405      -0.052555
     18 H                     0.249453       0.002517
     19 C                    -0.363319       0.076661
     20 H                     0.245614      -0.004475
     21 C                    -0.233889      -0.042860
     22 H                     0.248540       0.002104
     23 C                    -0.358487       0.059555
     24 H                     0.245662      -0.003434
     25 B                     0.510387       0.356310
     26 C                    -0.130995       0.014548
     27 C                    -0.407664       0.003061
     28 H                     0.218075      -0.002841
     29 C                     0.051925       0.025766
     30 C                     0.081958       0.098399
     31 C                    -0.413512      -0.060140
     32 H                     0.234026       0.002422
     33 C                    -0.144882       0.070232
     34 C                     0.176645      -0.040189
     35 C                    -0.404507       0.062871
     36 H                     0.236905      -0.003667
     37 C                    -0.078512       0.022141
     38 C                     0.219231      -0.035704
     39 C                     0.176899      -0.057263
     40 C                    -0.413226       0.083330
     41 H                     0.244122      -0.004857
     42 C                    -0.233504      -0.042124
     43 H                     0.248487       0.002068
     44 C                    -0.357899       0.058391
     45 H                     0.245875      -0.003366
     46 C                    -0.229989      -0.051532
     47 H                     0.249376       0.002469
     48 C                    -0.363155       0.075013
     49 H                     0.245865      -0.004377
     50 B                     0.529821       0.270059
     51 C                    -0.129638       0.516860
     52 C                     0.086999      -0.119373
     53 C                    -0.354933       0.155244
     54 H                     0.292037      -0.009237
     55 C                     0.471831       0.205327
     56 O                    -0.386924       0.155636
     57 C                    -0.408566       0.054496
     58 H                     0.301381      -0.004315
     59 C                     0.095033      -0.011713
     60 C                    -0.452540      -0.014904
     61 H                     0.287797       0.000015
     62 H                     0.264089       0.009883
     63 H                     0.264412       0.009951
     64 C                    -0.549184       0.008553
     65 H                     0.280445      -0.003217
     66 H                     0.256771      -0.000126
     67 C                    -0.553653       0.001258
     68 H                     0.288307      -0.002123
     69 H                     0.259353       0.001390
     70 C                    -0.664168      -0.000414
     71 H                     0.252232      -0.000411
     72 H                     0.241564      -0.000386
     73 H                     0.223993      -0.000176
     74 C                    -0.662446       0.004513
     75 H                     0.252846      -0.000648
     76 H                     0.244398       0.000506
     77 H                     0.224802      -0.000384
     78 C                    -0.193112      -0.027413
     79 C                     0.056956       0.005270
     80 C                    -0.448370      -0.001826
     81 H                     0.247575       0.000368
     82 C                     0.380914       0.002144
     83 O                    -0.472889       0.000291
     84 C                    -0.405450      -0.001973
     85 H                     0.230622       0.000404
     86 C                     0.054360       0.005064
     87 C                    -0.426444      -0.000043
     88 H                     0.250307       0.000003
     89 H                     0.217586       0.000036
     90 H                     0.217614       0.000029
     91 C                    -0.541974       0.002595
     92 H                     0.253091      -0.001786
     93 H                     0.229983       0.000306
     94 C                    -0.542979       0.002529
     95 H                     0.252702      -0.001824
     96 H                     0.232008       0.000320
     97 C                    -0.661261       0.000157
     98 H                     0.242691      -0.000480
     99 H                     0.217544      -0.000081
    100 H                     0.220602      -0.000011
    101 C                    -0.660367       0.000154
    102 H                     0.242731      -0.000451
    103 H                     0.216169      -0.000086
    104 H                     0.221361      -0.000015
  --------------------------------------------------------
  Sum of atomic charges =    -0.000000

                    Cartesian Multipole Moments
 -----------------------------------------------------------------
    Charge (ESU x 10^10)
                -0.0000
    Dipole Moment (Debye)
         X     -16.5908      Y      -0.9008      Z     -10.2760
       Tot      19.5362
    Quadrupole Moments (Debye-Ang)
        XX    -229.2687     XY      32.6711     YY    -329.5598
        XZ      86.4559     YZ      20.7543     ZZ    -269.4150

 Total job time:  29651.71s(wall), 85449.44s(cpu)
        *  Thank you very much for using Q-Chem.  Have a nice day.  *
