 Q-Chem 5.0, Q-Chem, Inc., Pleasanton, CA (2017)
 Q-Chem 5.0.1 for Intel X86 EM64T Linux

User input:
--------------------------------------------------------------
$rem
threads 8
jobtype opt
method PBEh-3c
basis def2-mSVP
mem_static      1024
mem_total       8000
sym_ignore      true
unrestricted true
scf_algorithm   diis
scf_max_cycles  250
solvent_method  pcm
geom_opt_tol_energy 25
geom_opt_tol_gradient 75
$end

$pcm
theory  iefpcm
$end

$solvent
dielectric      1.0001
$end

$molecule
read utLEincoords.mol
$end

--------------------------------------------------------------

   29   -2280.6314376433      7.99E-09 Convergence criterion met
 Total energy in the final basis set = -2280.63143764
   17   -2280.6361631894      9.23E-09 Convergence criterion met
 Total energy in the final basis set = -2280.63616319
   17   -2280.6374538772      7.04E-09 Convergence criterion met
 Total energy in the final basis set = -2280.63745388
   17   -2280.6372311132      8.39E-09 Convergence criterion met
 Total energy in the final basis set = -2280.63723111
   15   -2280.6378861825      8.66E-09 Convergence criterion met
 Total energy in the final basis set = -2280.63788618
   13   -2280.6378994832      6.89E-09 Convergence criterion met
 Total energy in the final basis set = -2280.63789948
   12   -2280.6379670110      9.78E-09 Convergence criterion met
 Total energy in the final basis set = -2280.63796701
   13   -2280.6379313371      6.78E-09 Convergence criterion met
 Total energy in the final basis set = -2280.63793134
   10   -2280.6379689666      7.84E-09 Convergence criterion met
 Total energy in the final basis set = -2280.63796897
   10   -2280.6379685467      6.88E-09 Convergence criterion met
 Total energy in the final basis set = -2280.63796855
    9   -2280.6379720903      6.42E-09 Convergence criterion met
 Total energy in the final basis set = -2280.63797209
    8   -2280.6379734013      7.54E-09 Convergence criterion met
 Total energy in the final basis set = -2280.63797340
    8   -2280.6379758437      6.95E-09 Convergence criterion met
 Total energy in the final basis set = -2280.63797584

             Standard Nuclear Orientation (Angstroms)
    I     Atom           X                Y                Z
 ----------------------------------------------------------------
    1      C      -0.0093336349    -0.3608990065     0.0325848976
    2      C      -0.0037947608    -0.3757779947     1.4396159882
    3      H       0.9437120251    -0.4054152407     1.9661469045
    4      C      -1.1877110885    -0.3509026808     2.1390424353
    5      C      -1.4855948569    -0.3575515716     3.5732311193
    6      C      -0.7455475117    -0.3896234418     4.7250025601
    7      H       0.3366338097    -0.4188846473     4.7085874811
    8      C      -1.4270603453    -0.3847059212     5.9654334859
    9      H      -0.8412195869    -0.4102156996     6.8748807807
   10      C      -2.7988091463    -0.3493807416     6.0580419249
   11      H      -3.2732696262    -0.3471715819     7.0316345388
   12      C      -2.8892313468    -0.3218551827     3.6819588876
   13      C      -3.5882726997    -0.3164752740     4.8837815536
   14      C      -3.5036696836    -0.2927526848     2.4157216106
   15      C      -4.8714416724    -0.2554771192     2.3445341726
   16      H      -5.3944148070    -0.2306423349     1.3963890977
   17      C      -5.6082050216    -0.2492343381     3.5512698163
   18      H      -6.6888101134    -0.2200169344     3.4978837807
   19      C      -5.0006466378    -0.2785881112     4.7848368913
   20      H      -5.6069276695    -0.2723776871     5.6822958564
   21      C      -2.4224920136    -0.3111987282     1.4351238365
   22      C      -2.4472812384    -0.2986386374     0.0594510459
   23      H      -3.3926921830    -0.2732589197    -0.4719538207
   24      C      -1.2474965042    -0.3198376972    -0.6704701499
   25      B       1.3340949361    -0.3926371477    -0.7286191887
   26      B      -1.2984106177    -0.3048411385    -2.2200444548
   27      C       1.3225325219    -0.3509266078    -2.2667689324
   28      C       2.5225917698    -0.3811987647    -2.9681376510
   29      H       3.4571382931    -0.4358050808    -2.4213589823
   30      C       2.5279633219    -0.3457554078    -4.3499725103
   31      C       3.5726101088    -0.3647290172    -5.3175076546
   32      C       4.9596725442    -0.4226244795    -5.2757889355
   33      H       5.4974102414    -0.4650335681    -4.3380029992
   34      C       5.6597655390    -0.4285251222    -6.4891336689
   35      H       6.7406305936    -0.4741362303    -6.4624789857
   36      C       5.0286662705    -0.3805437283    -7.7220428392
   37      H       5.6213209111    -0.3892404794    -8.6281987544
   38      C       2.9386762147    -0.3156802855    -6.5845763302
   39      C       3.6175957027    -0.3223729915    -7.8022759065
   40      C       1.5227579327    -0.2656054577    -6.4723616861
   41      C       0.7608027993    -0.2179616520    -7.6375657654
   42      H      -0.3201504427    -0.1779852105    -7.6063489741
   43      C       1.4291489092    -0.2228276221    -8.8657862405
   44      H       0.8440010407    -0.1858812988    -9.7755882235
   45      C       2.8119589795    -0.2735818924    -8.9662167668
   46      H       3.2764554160    -0.2761836596    -9.9443929151
   47      C       1.2306395760    -0.2843081201    -5.0880783186
   48      C       0.0310604948    -0.2679398493    -4.3849043439
   49      H      -0.9109211449    -0.2344089442    -4.9219988511
   50      C       0.0294938269    -0.3032786831    -3.0017669092
   51      C       2.7041418987    -0.4921131063     0.0350543143
   52      C       3.5019525060     0.6370277268     0.2390960310
   53      C       4.7194530995     0.5369282066     0.9107724596
   54      H       5.3062247926     1.4361114868     1.0543529387
   55      C       5.1582998950    -0.6924988824     1.3827278960
   56      O       6.3206827246    -0.8887192456     2.0406775705
   57      C       4.3705653217    -1.8215747087     1.1804693828
   58      H       4.7219050134    -2.7785579193     1.5497068498
   59      C       3.1575849270    -1.7312058991     0.5193704438
   60      C       7.1461979771     0.2182529126     2.2795919265
   61      H       8.0167119175    -0.1522839865     2.8171011268
   62      H       7.4867235811     0.6917613990     1.3527009359
   63      H       6.6555614896     0.9785270380     2.8964241441
   64      C       3.0367901966     2.0003831180    -0.2059649235
   65      H       2.4740660435     1.9240642233    -1.1399823662
   66      H       3.9028178491     2.6284514265    -0.4311285857
   67      C       2.3680341059    -2.9948715020     0.2829208528
   68      H       1.2958145003    -2.7850037131     0.3047049300
   69      H       2.5510284873    -3.6953210178     1.1015839613
   70      C       2.1701662525     2.6923599608     0.8439893910
   71      H       1.2627623621     2.1232711612     1.0462658530
   72      H       1.8688156976     3.6857314736     0.5094429372
   73      H       2.7082715850     2.8030451464     1.7859510613
   74      C       2.7217047367    -3.6694290284    -1.0413092649
   75      H       2.4961917179    -3.0234755275    -1.8899090227
   76      H       3.7832223726    -3.9148418431    -1.0860384858
   77      H       2.1576975712    -4.5939656471    -1.1716783191
   78      C      -2.6723871336    -0.3091280209    -2.9947237546
   79      C      -3.1991061550    -1.5017308059    -3.4994032120
   80      C      -4.4095160549    -1.5159070634    -4.1909145386
   81      H      -4.7805123750    -2.4644430820    -4.5608396268
   82      C      -5.1176776386    -0.3405415383    -4.3894997593
   83      O      -6.2962318580    -0.2565726859    -5.0428616644
   84      C      -4.6035687397     0.8519675810    -3.8912321098
   85      H      -5.1595000374     1.7691713285    -4.0506163313
   86      C      -3.4011832420     0.8748561259    -3.2047214836
   87      C      -6.8639346545    -1.4336105833    -5.5512289343
   88      H      -7.7992492487    -1.1478000059    -6.0282480095
   89      H      -7.0844206333    -2.1631228372    -4.7648253432
   90      H      -6.2262864752    -1.9148912813    -6.3002090602
   91      C      -2.8659573617     2.2081011907    -2.7510653691
   92      H      -3.6973756613     2.8539724446    -2.4574624997
   93      H      -2.2486239705     2.0894396537    -1.8571441431
   94      C      -2.5186623923    -2.8254337381    -3.2563538640
   95      H      -1.4427562660    -2.6851026231    -3.1291569758
   96      H      -2.6342145122    -3.4640669346    -4.1364833964
   97      C      -2.0529501067     2.8998797683    -3.8432244291
   98      H      -1.1826142527     2.3060648909    -4.1229701102
   99      H      -2.6529010135     3.0505257485    -4.7413077256
  100      H      -1.6955998765     3.8747723961    -3.5096870664
  101      C      -3.0816500005    -3.5432609817    -2.0317908020
  102      H      -2.9387943477    -2.9487938109    -1.1291891759
  103      H      -4.1512443617    -3.7268092164    -2.1406432205
  104      H      -2.5901245862    -4.5047872517    -1.8788443894
 ----------------------------------------------------------------

    7   -2280.6379777136      9.39E-09 Convergence criterion met
 Total energy in the final basis set = -2280.63797771
 Final energy is   -2280.63797771364
 **  OPTIMIZATION CONVERGED  **

                    Orbital Energies (a.u.)
 --------------------------------------------------------------

 Alpha MOs
 -- Occupied --
-19.521 -19.521 -10.497 -10.497 -10.487 -10.487 -10.482 -10.482
-10.468 -10.467 -10.466 -10.465 -10.465 -10.464 -10.464 -10.463
-10.461 -10.460 -10.460 -10.460 -10.459 -10.459 -10.459 -10.458
-10.458 -10.458 -10.457 -10.457 -10.456 -10.456 -10.456 -10.449
-10.447 -10.446 -10.446 -10.445 -10.444 -10.444 -10.443 -10.443
-10.431 -10.430 -10.430 -10.430 -10.429 -10.429 -10.428 -10.428
-10.424 -10.424 -10.417 -10.416 -10.416 -10.415 -10.411 -10.410
 -6.932  -6.930  -1.179  -1.179  -1.025  -1.012  -0.966  -0.956
 -0.950  -0.949  -0.937  -0.930  -0.912  -0.898  -0.884  -0.883
 -0.870  -0.860  -0.860  -0.853  -0.850  -0.843  -0.824  -0.820
 -0.815  -0.815  -0.809  -0.803  -0.797  -0.796  -0.771  -0.770
 -0.743  -0.735  -0.724  -0.719  -0.707  -0.706  -0.700  -0.698
 -0.690  -0.686  -0.678  -0.667  -0.654  -0.645  -0.644  -0.641
 -0.626  -0.625  -0.602  -0.592  -0.591  -0.588  -0.583  -0.581
 -0.580  -0.575  -0.575  -0.559  -0.558  -0.544  -0.542  -0.534
 -0.532  -0.532  -0.529  -0.522  -0.518  -0.506  -0.503  -0.503
 -0.501  -0.500  -0.499  -0.496  -0.495  -0.492  -0.488  -0.486
 -0.484  -0.480  -0.479  -0.479  -0.478  -0.477  -0.475  -0.465
 -0.461  -0.457  -0.456  -0.455  -0.451  -0.448  -0.444  -0.441
 -0.438  -0.432  -0.431  -0.428  -0.426  -0.425  -0.424  -0.414
 -0.410  -0.409  -0.405  -0.405  -0.404  -0.401  -0.399  -0.398
 -0.395  -0.393  -0.391  -0.389  -0.388  -0.384  -0.382  -0.378
 -0.376  -0.375  -0.360  -0.359  -0.357  -0.353  -0.350  -0.349
 -0.338  -0.337  -0.334  -0.312  -0.310  -0.294  -0.290  -0.274
 -0.270  -0.269  -0.261  -0.254  -0.246  -0.244  -0.181

 Beta MOs
 -- Occupied --
-19.521 -19.521 -10.497 -10.497 -10.487 -10.487 -10.475 -10.475
-10.470 -10.468 -10.467 -10.464 -10.463 -10.462 -10.462 -10.461
-10.461 -10.461 -10.460 -10.460 -10.459 -10.459 -10.459 -10.459
-10.458 -10.458 -10.458 -10.457 -10.456 -10.456 -10.456 -10.446
-10.446 -10.444 -10.444 -10.444 -10.444 -10.443 -10.443 -10.442
-10.431 -10.430 -10.430 -10.430 -10.429 -10.429 -10.428 -10.427
-10.424 -10.424 -10.417 -10.416 -10.416 -10.415 -10.411 -10.410
 -6.931  -6.929  -1.179  -1.179  -1.017  -1.011  -0.958  -0.954
 -0.950  -0.949  -0.933  -0.929  -0.905  -0.897  -0.884  -0.883
 -0.867  -0.859  -0.859  -0.849  -0.848  -0.843  -0.818  -0.817
 -0.814  -0.812  -0.808  -0.797  -0.796  -0.793  -0.771  -0.770
 -0.733  -0.732  -0.724  -0.717  -0.707  -0.706  -0.699  -0.698
 -0.687  -0.679  -0.676  -0.664  -0.653  -0.644  -0.643  -0.641
 -0.626  -0.625  -0.598  -0.590  -0.589  -0.587  -0.582  -0.581
 -0.580  -0.574  -0.573  -0.558  -0.558  -0.541  -0.540  -0.533
 -0.532  -0.532  -0.527  -0.521  -0.516  -0.505  -0.503  -0.501
 -0.500  -0.499  -0.496  -0.496  -0.490  -0.488  -0.484  -0.483
 -0.479  -0.479  -0.478  -0.478  -0.478  -0.477  -0.474  -0.464
 -0.459  -0.456  -0.455  -0.454  -0.450  -0.448  -0.442  -0.436
 -0.432  -0.431  -0.427  -0.425  -0.425  -0.422  -0.413  -0.413
 -0.409  -0.408  -0.405  -0.403  -0.399  -0.398  -0.396  -0.394
 -0.393  -0.392  -0.391  -0.388  -0.386  -0.383  -0.378  -0.377
 -0.372  -0.362  -0.358  -0.358  -0.352  -0.351  -0.350  -0.337
 -0.335  -0.333  -0.325  -0.310  -0.296  -0.291  -0.270  -0.269
 -0.263  -0.259  -0.252  -0.246  -0.244

          Ground-State Mulliken Net Atomic Charges

     Atom                 Charge (a.u.)    Spin (a.u.)
  --------------------------------------------------------
      1 C                    -0.141891       0.013893
      2 C                    -0.398843      -0.003545
      3 H                     0.238118      -0.000257
      4 C                     0.106289       0.028543
      5 C                     0.200003      -0.017835
      6 C                    -0.386387       0.020349
      7 H                     0.220821      -0.001205
      8 C                    -0.203140      -0.014598
      9 H                     0.225398       0.000727
     10 C                    -0.337021       0.020115
     11 H                     0.219079      -0.001177
     12 C                    -0.063528       0.017916
     13 C                     0.252111      -0.013396
     14 C                     0.192745      -0.020014
     15 C                    -0.379858       0.022965
     16 H                     0.220942      -0.001358
     17 C                    -0.205084      -0.015717
     18 H                     0.225599       0.000772
     19 C                    -0.334551       0.022543
     20 H                     0.218865      -0.001326
     21 C                     0.099416       0.037318
     22 C                    -0.395913      -0.011590
     23 H                     0.234935       0.000179
     24 C                    -0.143337       0.020036
     25 B                     0.614817       0.152651
     26 B                     0.617960       0.152194
     27 C                    -0.140494       0.399884
     28 C                    -0.371489      -0.279425
     29 H                     0.248571       0.011550
     30 C                     0.088925       0.454169
     31 C                     0.205173      -0.209539
     32 C                    -0.376009       0.296938
     33 H                     0.221043      -0.017754
     34 C                    -0.201523      -0.202377
     35 H                     0.226890       0.009855
     36 C                    -0.342556       0.315298
     37 H                     0.220432      -0.018717
     38 C                    -0.069389       0.277151
     39 C                     0.256247      -0.197983
     40 C                     0.197116      -0.201610
     41 C                    -0.367983       0.312934
     42 H                     0.221769      -0.018795
     43 C                    -0.202481      -0.208945
     44 H                     0.228100       0.010030
     45 C                    -0.338342       0.342612
     46 H                     0.221410      -0.020337
     47 C                     0.081462       0.457696
     48 C                    -0.372070      -0.255985
     49 H                     0.246484       0.010250
     50 C                    -0.137783       0.341617
     51 C                    -0.222296      -0.016318
     52 C                     0.083483       0.003525
     53 C                    -0.428867      -0.000698
     54 H                     0.220371       0.000218
     55 C                     0.401236       0.001317
     56 O                    -0.453596       0.000256
     57 C                    -0.379082      -0.001208
     58 H                     0.218446       0.000283
     59 C                     0.080611       0.002602
     60 C                    -0.405413      -0.000037
     61 H                     0.238340       0.000002
     62 H                     0.202089       0.000027
     63 H                     0.203238       0.000024
     64 C                    -0.544053       0.004097
     65 H                     0.249610      -0.001664
     66 H                     0.222694       0.000191
     67 C                    -0.549538       0.000949
     68 H                     0.256157      -0.000989
     69 H                     0.228988       0.000046
     70 C                    -0.644515      -0.000002
     71 H                     0.246448      -0.000207
     72 H                     0.216608      -0.000002
     73 H                     0.213668       0.000052
     74 C                    -0.644253       0.000379
     75 H                     0.237508      -0.000486
     76 H                     0.217469       0.000102
     77 H                     0.216560      -0.000035
     78 C                    -0.222957      -0.015828
     79 C                     0.073404       0.002326
     80 C                    -0.424274      -0.000286
     81 H                     0.220537       0.000188
     82 C                     0.401166       0.000478
     83 O                    -0.454193       0.000082
     84 C                    -0.373166      -0.000682
     85 H                     0.218037       0.000249
     86 C                     0.077885       0.001904
     87 C                    -0.405288      -0.000015
     88 H                     0.238330       0.000002
     89 H                     0.203337       0.000007
     90 H                     0.202370       0.000010
     91 C                    -0.546753       0.001386
     92 H                     0.228746       0.000117
     93 H                     0.253279      -0.001171
     94 C                    -0.546918       0.004564
     95 H                     0.253100      -0.002143
     96 H                     0.224125       0.000059
     97 C                    -0.642753      -0.000434
     98 H                     0.234849       0.000046
     99 H                     0.217008       0.000016
    100 H                     0.217050       0.000001
    101 C                    -0.639971      -0.000096
    102 H                     0.241940      -0.000096
    103 H                     0.212039       0.000191
    104 H                     0.216115      -0.000001
  --------------------------------------------------------
  Sum of atomic charges =    -0.000000

                    Cartesian Multipole Moments
 -----------------------------------------------------------------
    Charge (ESU x 10^10)
                -0.0000
    Dipole Moment (Debye)
         X       0.7058      Y      -0.0529      Z      -1.2567
       Tot       1.4423
    Quadrupole Moments (Debye-Ang)
        XX    -293.5040     XY      15.7624     YY    -339.3354
        XZ      -3.9464     YZ       9.6324     ZZ    -286.1495

 Total job time:  26082.67s(wall), 77464.69s(cpu)
        *  Thank you very much for using Q-Chem.  Have a nice day.  *
