 Q-Chem 5.0, Q-Chem, Inc., Pleasanton, CA (2017)
 Q-Chem 5.0.1 for Intel X86 EM64T Linux

User input:
--------------------------------------------------------------
$rem
threads 8
jobtype opt
method PBEh-3c
basis def2-mSVP
mem_static      1024
mem_total       8000
sym_ignore      true
unrestricted true
scf_algorithm	diis
scf_max_cycles	250
solvent_method  pcm
geom_opt_tol_energy 25
geom_opt_tol_gradient 75
$end

$pcm
theory  iefpcm
$end
$solvent
dielectric      4.33
$end

$molecule
read utLEincoords.mol
$end
--------------------------------------------------------------

   30   -2280.6508819861      5.18E-09 Convergence criterion met
 Total energy in the final basis set = -2280.65088199
   17   -2280.6555873592      9.71E-09 Convergence criterion met
 Total energy in the final basis set = -2280.65558736
   17   -2280.6567918708      7.36E-09 Convergence criterion met
 Total energy in the final basis set = -2280.65679187
   17   -2280.6566806531      8.01E-09 Convergence criterion met
 Total energy in the final basis set = -2280.65668065
   16   -2280.6572443908      6.08E-09 Convergence criterion met
 Total energy in the final basis set = -2280.65724439
   15   -2280.6572681005      7.60E-09 Convergence criterion met
 Total energy in the final basis set = -2280.65726810
   16   -2280.6573209658      6.60E-09 Convergence criterion met
 Total energy in the final basis set = -2280.65732097
   16   -2280.6572657571      6.36E-09 Convergence criterion met
 Total energy in the final basis set = -2280.65726576
   15   -2280.6573250564      6.44E-09 Convergence criterion met
 Total energy in the final basis set = -2280.65732506
   15   -2280.6573273950      7.60E-09 Convergence criterion met
 Total energy in the final basis set = -2280.65732740
   15   -2280.6573306844      7.74E-09 Convergence criterion met
 Total energy in the final basis set = -2280.65733068
   15   -2280.6573315407      8.13E-09 Convergence criterion met
 Total energy in the final basis set = -2280.65733154
   15   -2280.6573351565      6.52E-09 Convergence criterion met
 Total energy in the final basis set = -2280.65733516

             Standard Nuclear Orientation (Angstroms)
    I     Atom           X                Y                Z
 ----------------------------------------------------------------
    1      C      -0.0093780898    -0.3518198621     0.0318552777
    2      C      -0.0038843215    -0.3644666823     1.4396318207
    3      H       0.9416285661    -0.3979956723     1.9693240576
    4      C      -1.1875560454    -0.3316456439     2.1399984398
    5      C      -1.4845077081    -0.3336129826     3.5746451938
    6      C      -0.7430820439    -0.3674549030     4.7266147775
    7      H       0.3390934986    -0.4023067322     4.7102922346
    8      C      -1.4249243406    -0.3565267126     5.9678443197
    9      H      -0.8385502688    -0.3834480675     6.8770416552
   10      C      -2.7975029249    -0.3137332715     6.0611060388
   11      H      -3.2722641746    -0.3071402529     7.0346311365
   12      C      -2.8884460477    -0.2901059627     3.6832743451
   13      C      -3.5872181867    -0.2786752856     4.8860324237
   14      C      -3.5041576602    -0.2603238680     2.4170595481
   15      C      -4.8726826698    -0.2158388870     2.3459172429
   16      H      -5.3964880728    -0.1903189128     1.3980660927
   17      C      -5.6087594078    -0.2031097799     3.5540540057
   18      H      -6.6893114318    -0.1682402825     3.5008594346
   19      C      -5.0003302404    -0.2333745563     4.7883973251
   20      H      -5.6054928734    -0.2221566924     5.6866940044
   21      C      -2.4230775236    -0.2868997413     1.4361233401
   22      C      -2.4481211764    -0.2786596743     0.0599140925
   23      H      -3.3957610920    -0.2509419005    -0.4672172663
   24      C      -1.2484382195    -0.3076258620    -0.6712485069
   25      B       1.3341389456    -0.3900317983    -0.7297091609
   26      B      -1.2993060730    -0.2998937248    -2.2214518582
   27      C       1.3221145091    -0.3406641874    -2.2672002642
   28      C       2.5236283029    -0.3617387726    -2.9701250440
   29      H       3.4609227557    -0.4136926026    -2.4281197747
   30      C       2.5280074914    -0.3213436206    -4.3506043652
   31      C       3.5743165781    -0.3310034796    -5.3194916779
   32      C       4.9612221703    -0.3797642143    -5.2776689037
   33      H       5.4997558614    -0.4208530242    -4.3400499345
   34      C       5.6615878158    -0.3776973191    -6.4930134329
   35      H       6.7428409318    -0.4161429698    -6.4665153826
   36      C       5.0294860423    -0.3301470443    -7.7256778006
   37      H       5.6208175470    -0.3321419100    -8.6328753506
   38      C       2.9388562844    -0.2824577246    -6.5858204492
   39      C       3.6169613679    -0.2808953135    -7.8038552707
   40      C       1.5217038739    -0.2418917858    -6.4730240886
   41      C       0.7578832578    -0.1954094123    -7.6373638691
   42      H      -0.3234730980    -0.1628059646    -7.6052018790
   43      C       1.4264005396    -0.1920202009    -8.8668914250
   44      H       0.8403691497    -0.1560435784    -9.7762704738
   45      C       2.8101300683    -0.2333951149    -8.9683253066
   46      H       3.2746504096    -0.2298850647    -9.9465796795
   47      C       1.2305157176    -0.2664193203    -5.0883805074
   48      C       0.0303089321    -0.2584623920    -4.3856494140
   49      H      -0.9088703762    -0.2288310245    -4.9275054839
   50      C       0.0282758854    -0.2948019677    -3.0020965325
   51      C       2.7034447298    -0.5055352328     0.0353667592
   52      C       3.5092621974     0.6158632169     0.2550330832
   53      C       4.7252075801     0.5000732685     0.9285159116
   54      H       5.3192403023     1.3926686308     1.0835823339
   55      C       5.1546180851    -0.7386086457     1.3874013247
   56      O       6.3141038476    -0.9488642695     2.0460926455
   57      C       4.3592136704    -1.8606001782     1.1694613443
   58      H       4.7002118747    -2.8264097155     1.5267354185
   59      C       3.1479925284    -1.7535642080     0.5048611077
   60      C       7.1508126585     0.1548941159     2.2970489073
   61      H       8.0178329392    -0.2272547308     2.8314359816
   62      H       7.4927080470     0.6322408460     1.3738252491
   63      H       6.6625590932     0.9102948413     2.9199807956
   64      C       3.0565194496     1.9877814855    -0.1766006065
   65      H       2.4868080889     1.9244931376    -1.1073366775
   66      H       3.9279117006     2.6085884642    -0.3999791827
   67      C       2.3523020648    -3.0098525353     0.2495698928
   68      H       1.2815507057    -2.7917799994     0.2591167787
   69      H       2.5211619517    -3.7191507158     1.0635202476
   70      C       2.2029689330     2.6801930668     0.8840052525
   71      H       1.2942380187     2.1147217912     1.0916240140
   72      H       1.9046449877     3.6763587550     0.5549714935
   73      H       2.7502806109     2.7850025294     1.8215327796
   74      C       2.7163512637    -3.6757217007    -1.0765989051
   75      H       2.5138837840    -3.0167397816    -1.9212635770
   76      H       3.7745456892    -3.9380839118    -1.1072242169
   77      H       2.1396485979    -4.5897584091    -1.2247245079
   78      C      -2.6744700959    -0.3187122683    -2.9963209575
   79      C      -3.1961249135    -1.5213456987    -3.4843763710
   80      C      -4.4060982527    -1.5522756025    -4.1773496741
   81      H      -4.7724964450    -2.5076173723    -4.5341583963
   82      C      -5.1198183287    -0.3823228298    -4.3937940823
   83      O      -6.2979577642    -0.3145497036    -5.0497125299
   84      C      -4.6110821080     0.8205279203    -3.9120668672
   85      H      -5.1688150187     1.7350387781    -4.0838042297
   86      C      -3.4082137325     0.8588174761    -3.2243520773
   87      C      -6.8595990050    -1.5069077735    -5.5461732934
   88      H      -7.7951813298    -1.2325781763    -6.0286677953
   89      H      -7.0756246116    -2.2248617536    -4.7493142624
   90      H      -6.2152231794    -1.9911491411    -6.2860198624
   91      C      -2.8803874570     2.2014513116    -2.7896623401
   92      H      -3.7138785090     2.8435226305    -2.4939571214
   93      H      -2.2509632547     2.0964280089    -1.9024761963
   94      C      -2.5086982026    -2.8383657457    -3.2239268323
   95      H      -1.4350749855    -2.6891308529    -3.0874056153
   96      H      -2.6132988856    -3.4859579844    -4.0986119337
   97      C      -2.0851848187     2.8894035064    -3.8975405646
   98      H      -1.2165982494     2.2965161608    -4.1853014239
   99      H      -2.6984539356     3.0328290239    -4.7880307808
  100      H      -1.7276936233     3.8676566510    -3.5740033379
  101      C      -3.0783627671    -3.5493087241    -1.9981728133
  102      H      -2.9591033055    -2.9403418363    -1.1014467785
  103      H      -4.1428768862    -3.7531164592    -2.1213515724
  104      H      -2.5725010785    -4.5001366357    -1.8260446916
 ----------------------------------------------------------------

   15   -2280.6573386466      6.25E-09 Convergence criterion met
 Total energy in the final basis set = -2280.65733865
 Final energy is   -2280.65733864661
 **  OPTIMIZATION CONVERGED  **

                    Orbital Energies (a.u.)
 --------------------------------------------------------------

 Alpha MOs
 -- Occupied --
-19.525 -19.525 -10.502 -10.502 -10.485 -10.485 -10.483 -10.483
-10.470 -10.468 -10.468 -10.466 -10.466 -10.465 -10.464 -10.463
-10.463 -10.463 -10.462 -10.462 -10.462 -10.461 -10.461 -10.459
-10.459 -10.459 -10.459 -10.459 -10.458 -10.456 -10.456 -10.453
-10.450 -10.450 -10.449 -10.449 -10.449 -10.448 -10.448 -10.447
-10.435 -10.435 -10.433 -10.432 -10.432 -10.432 -10.431 -10.431
-10.429 -10.429 -10.419 -10.419 -10.418 -10.418 -10.416 -10.415
 -6.935  -6.933  -1.181  -1.180  -1.027  -1.015  -0.968  -0.959
 -0.954  -0.953  -0.937  -0.931  -0.913  -0.901  -0.887  -0.886
 -0.872  -0.862  -0.862  -0.853  -0.853  -0.845  -0.826  -0.822
 -0.817  -0.816  -0.811  -0.806  -0.800  -0.799  -0.772  -0.771
 -0.743  -0.736  -0.726  -0.720  -0.710  -0.709  -0.702  -0.701
 -0.691  -0.687  -0.679  -0.669  -0.656  -0.647  -0.646  -0.643
 -0.629  -0.628  -0.602  -0.593  -0.592  -0.588  -0.583  -0.582
 -0.581  -0.576  -0.576  -0.561  -0.561  -0.545  -0.543  -0.536
 -0.532  -0.531  -0.529  -0.522  -0.520  -0.508  -0.505  -0.504
 -0.503  -0.501  -0.501  -0.498  -0.497  -0.493  -0.490  -0.487
 -0.485  -0.484  -0.481  -0.481  -0.480  -0.479  -0.476  -0.465
 -0.461  -0.458  -0.457  -0.456  -0.454  -0.451  -0.444  -0.443
 -0.440  -0.434  -0.434  -0.429  -0.429  -0.428  -0.427  -0.416
 -0.412  -0.411  -0.408  -0.407  -0.405  -0.400  -0.400  -0.400
 -0.397  -0.394  -0.394  -0.391  -0.390  -0.386  -0.385  -0.380
 -0.378  -0.377  -0.363  -0.362  -0.360  -0.357  -0.354  -0.352
 -0.341  -0.341  -0.338  -0.317  -0.311  -0.297  -0.293  -0.277
 -0.275  -0.274  -0.265  -0.257  -0.251  -0.249  -0.183

 Beta MOs
 -- Occupied --
-19.525 -19.525 -10.502 -10.502 -10.483 -10.483 -10.478 -10.478
-10.471 -10.471 -10.469 -10.466 -10.465 -10.464 -10.463 -10.463
-10.462 -10.462 -10.462 -10.461 -10.461 -10.461 -10.461 -10.460
-10.460 -10.459 -10.459 -10.459 -10.458 -10.456 -10.456 -10.450
-10.450 -10.449 -10.449 -10.448 -10.448 -10.447 -10.447 -10.445
-10.435 -10.434 -10.433 -10.432 -10.432 -10.432 -10.431 -10.431
-10.429 -10.429 -10.419 -10.419 -10.418 -10.418 -10.416 -10.415
 -6.934  -6.932  -1.181  -1.180  -1.019  -1.014  -0.961  -0.957
 -0.954  -0.952  -0.934  -0.931  -0.907  -0.899  -0.887  -0.886
 -0.869  -0.862  -0.861  -0.852  -0.848  -0.844  -0.820  -0.819
 -0.815  -0.814  -0.810  -0.800  -0.799  -0.795  -0.772  -0.771
 -0.734  -0.733  -0.725  -0.718  -0.710  -0.709  -0.702  -0.701
 -0.688  -0.681  -0.677  -0.666  -0.655  -0.645  -0.644  -0.642
 -0.629  -0.628  -0.598  -0.591  -0.589  -0.586  -0.582  -0.582
 -0.581  -0.574  -0.574  -0.561  -0.560  -0.543  -0.541  -0.534
 -0.532  -0.531  -0.527  -0.521  -0.517  -0.508  -0.504  -0.503
 -0.501  -0.501  -0.498  -0.498  -0.491  -0.490  -0.486  -0.484
 -0.483  -0.481  -0.481  -0.480  -0.479  -0.478  -0.475  -0.464
 -0.460  -0.457  -0.457  -0.454  -0.453  -0.450  -0.442  -0.438
 -0.434  -0.433  -0.429  -0.428  -0.427  -0.426  -0.416  -0.415
 -0.411  -0.410  -0.407  -0.405  -0.399  -0.399  -0.399  -0.396
 -0.394  -0.393  -0.393  -0.389  -0.389  -0.386  -0.380  -0.379
 -0.375  -0.366  -0.362  -0.361  -0.355  -0.355  -0.353  -0.340
 -0.338  -0.336  -0.328  -0.314  -0.297  -0.293  -0.275  -0.274
 -0.267  -0.261  -0.255  -0.250  -0.249

          Ground-State Mulliken Net Atomic Charges

     Atom                 Charge (a.u.)    Spin (a.u.)
  --------------------------------------------------------
      1 C                    -0.142139       0.012039
      2 C                    -0.402479      -0.002513
      3 H                     0.246806      -0.000328
      4 C                     0.092208       0.028080
      5 C                     0.186066      -0.018226
      6 C                    -0.396049       0.021231
      7 H                     0.245316      -0.001236
      8 C                    -0.226094      -0.015161
      9 H                     0.249916       0.000740
     10 C                    -0.348621       0.020870
     11 H                     0.245953      -0.001196
     12 C                    -0.065579       0.017630
     13 C                     0.228215      -0.013792
     14 C                     0.179164      -0.020698
     15 C                    -0.389749       0.024201
     16 H                     0.245447      -0.001407
     17 C                    -0.227746      -0.016434
     18 H                     0.250150       0.000791
     19 C                    -0.346385       0.023647
     20 H                     0.245690      -0.001363
     21 C                     0.085368       0.038243
     22 C                    -0.399737      -0.011875
     23 H                     0.243692       0.000174
     24 C                    -0.145162       0.019662
     25 B                     0.607383       0.164161
     26 B                     0.609917       0.162436
     27 C                    -0.138174       0.402890
     28 C                    -0.374484      -0.278423
     29 H                     0.257293       0.011405
     30 C                     0.081139       0.451593
     31 C                     0.195297      -0.210923
     32 C                    -0.387016       0.289679
     33 H                     0.245812      -0.017015
     34 C                    -0.224063      -0.199217
     35 H                     0.251541       0.009553
     36 C                    -0.353029       0.305973
     37 H                     0.247434      -0.017780
     38 C                    -0.067684       0.276470
     39 C                     0.233827      -0.194534
     40 C                     0.187780      -0.200090
     41 C                    -0.378104       0.308719
     42 H                     0.247145      -0.018235
     43 C                    -0.224286      -0.206981
     44 H                     0.253397       0.009737
     45 C                    -0.347966       0.339981
     46 H                     0.249003      -0.019748
     47 C                     0.072919       0.454851
     48 C                    -0.374307      -0.249309
     49 H                     0.256335       0.009791
     50 C                    -0.136982       0.330767
     51 C                    -0.219705      -0.017512
     52 C                     0.073837       0.003658
     53 C                    -0.443926      -0.000728
     54 H                     0.245386       0.000233
     55 C                     0.390351       0.001330
     56 O                    -0.467004       0.000259
     57 C                    -0.398848      -0.001231
     58 H                     0.232767       0.000286
     59 C                     0.069716       0.002727
     60 C                    -0.423843      -0.000037
     61 H                     0.250393       0.000003
     62 H                     0.215668       0.000025
     63 H                     0.216415       0.000024
     64 C                    -0.545848       0.004122
     65 H                     0.250984      -0.001723
     66 H                     0.233824       0.000196
     67 C                    -0.551255       0.001093
     68 H                     0.256401      -0.001115
     69 H                     0.237931       0.000070
     70 C                    -0.655621      -0.000019
     71 H                     0.242352      -0.000214
     72 H                     0.224523      -0.000003
     73 H                     0.218617       0.000054
     74 C                    -0.655182       0.000280
     75 H                     0.236891      -0.000491
     76 H                     0.220856       0.000096
     77 H                     0.224370      -0.000033
     78 C                    -0.220456      -0.016786
     79 C                     0.062255       0.002319
     80 C                    -0.439502      -0.000302
     81 H                     0.245270       0.000194
     82 C                     0.390130       0.000417
     83 O                    -0.467610       0.000066
     84 C                    -0.392363      -0.000644
     85 H                     0.232340       0.000253
     86 C                     0.068202       0.001941
     87 C                    -0.423644      -0.000013
     88 H                     0.250367       0.000002
     89 H                     0.216614       0.000006
     90 H                     0.215789       0.000008
     91 C                    -0.547660       0.001536
     92 H                     0.237324       0.000156
     93 H                     0.253467      -0.001286
     94 C                    -0.548926       0.004676
     95 H                     0.255113      -0.002305
     96 H                     0.234578       0.000070
     97 C                    -0.653969      -0.000550
     98 H                     0.234515       0.000078
     99 H                     0.220519       0.000000
    100 H                     0.224793       0.000005
    101 C                    -0.651677      -0.000118
    102 H                     0.238287      -0.000098
    103 H                     0.217880       0.000198
    104 H                     0.223934       0.000000
  --------------------------------------------------------
  Sum of atomic charges =    -0.000000

                    Cartesian Multipole Moments
 -----------------------------------------------------------------
    Charge (ESU x 10^10)
                -0.0000
    Dipole Moment (Debye)
         X       1.2107      Y      -0.0302      Z      -2.1452
       Tot       2.4634
    Quadrupole Moments (Debye-Ang)
        XX    -283.7249     XY      19.2653     YY    -337.0449
        XZ      -7.8275     YZ      11.8620     ZZ    -269.5798

 Total job time:  41197.80s(wall), 113149.18s(cpu)
        *  Thank you very much for using Q-Chem.  Have a nice day.  *
