 Q-Chem 5.0, Q-Chem, Inc., Pleasanton, CA (2017)
 Q-Chem 5.0.1 for Intel X86 EM64T Linux

User input:
--------------------------------------------------------------
$rem
threads 8
jobtype opt
method PBEh-3c
basis def2-mSVP
mem_static      1024
mem_total       8000
sym_ignore      true
unrestricted true
scf_algorithm	diis
scf_max_cycles	2500
solvent_method  pcm
geom_opt_tol_energy 25
geom_opt_tol_gradient 75
$end

$pcm
theory  iefpcm
$end

$solvent
dielectric      8.93
$end

$molecule
read utLEincoords.mol
$end
--------------------------------------------------------------

   28   -2280.6562274246      8.18E-09 Convergence criterion met
 Total energy in the final basis set = -2280.65622742
   18   -2280.6609571318      6.31E-09 Convergence criterion met
 Total energy in the final basis set = -2280.66095713
   17   -2280.6621539587      8.00E-09 Convergence criterion met
 Total energy in the final basis set = -2280.66215396
   17   -2280.6619982390      8.66E-09 Convergence criterion met
 Total energy in the final basis set = -2280.66199824
   16   -2280.6625800335      6.31E-09 Convergence criterion met
 Total energy in the final basis set = -2280.66258003
   16   -2280.6626077490      6.92E-09 Convergence criterion met
 Total energy in the final basis set = -2280.66260775
   16   -2280.6626569120      8.59E-09 Convergence criterion met
 Total energy in the final basis set = -2280.66265691
   16   -2280.6626030308      8.43E-09 Convergence criterion met
 Total energy in the final basis set = -2280.66260303
   15   -2280.6626586065      8.67E-09 Convergence criterion met
 Total energy in the final basis set = -2280.66265861
   16   -2280.6626623173      7.36E-09 Convergence criterion met
 Total energy in the final basis set = -2280.66266232
   16   -2280.6626656787      7.58E-09 Convergence criterion met
 Total energy in the final basis set = -2280.66266568
   16   -2280.6626671522      7.94E-09 Convergence criterion met
 Total energy in the final basis set = -2280.66266715
   15   -2280.6626720902      9.53E-09 Convergence criterion met
 Total energy in the final basis set = -2280.66267209

             Standard Nuclear Orientation (Angstroms)
    I     Atom           X                Y                Z
 ----------------------------------------------------------------
    1      C      -0.0097499858    -0.3476173113     0.0316332949
    2      C      -0.0045593582    -0.3585980100     1.4396880128
    3      H       0.9403479785    -0.3927507965     1.9704047661
    4      C      -1.1882765330    -0.3232366369     2.1401238997
    5      C      -1.4852055415    -0.3224615269     3.5748450358
    6      C      -0.7436447291    -0.3549033128     4.7271365735
    7      H       0.3385362209    -0.3906722770     4.7110888041
    8      C      -1.4257992506    -0.3410656244     5.9684444885
    9      H      -0.8394522845    -0.3668161658     6.8777028531
   10      C      -2.7986542617    -0.2967939796     6.0615749542
   11      H      -3.2738132206    -0.2879571791     7.0348927160
   12      C      -2.8892885639    -0.2773141505     3.6831274581
   13      C      -3.5881903993    -0.2630714475     4.8860582467
   14      C      -3.5051933333    -0.2489534011     2.4167676169
   15      C      -4.8739760083    -0.2031971927     2.3454695497
   16      H      -5.3979126183    -0.1787388261     1.3976274555
   17      C      -5.6100281309    -0.1877649129     3.5538784637
   18      H      -6.6905514233    -0.1519639205     3.5005809165
   19      C      -5.0015065454    -0.2165317183     4.7885672503
   20      H      -5.6063667992    -0.2032031362     5.6870424512
   21      C      -2.4239612579    -0.2782232809     1.4359469742
   22      C      -2.4487754186    -0.2722299571     0.0595509737
   23      H      -3.3969631445    -0.2444694596    -0.4665709433
   24      C      -1.2489511579    -0.3033009566    -0.6717846540
   25      B       1.3340628263    -0.3880652805    -0.7296218810
   26      B      -1.2995283364    -0.2985125257    -2.2223089212
   27      C       1.3221224020    -0.3353030046    -2.2669373104
   28      C       2.5245009206    -0.3512454173    -2.9700373867
   29      H       3.4625043203    -0.4004247394    -2.4290825771
   30      C       2.5288974669    -0.3094137373    -4.3499066925
   31      C       3.5761487069    -0.3141087385    -5.3190323396
   32      C       4.9629930756    -0.3560082402    -5.2768909130
   33      H       5.5016917203    -0.3940927928    -4.3391937419
   34      C       5.6637115229    -0.3504246080    -6.4927306048
   35      H       6.7451487936    -0.3833989710    -6.4660250576
   36      C       5.0314547985    -0.3058777779    -7.7254064368
   37      H       5.6224155453    -0.3048012439    -8.6328540307
   38      C       2.9403947696    -0.2683562841    -6.5852121154
   39      C       3.6184218260    -0.2633772617    -7.8032054256
   40      C       1.5226653790    -0.2341018985    -6.4725184127
   41      C       0.7584396592    -0.1908927159    -7.6368692452
   42      H      -0.3230797177    -0.1633086597    -7.6045141323
   43      C       1.4271798501    -0.1843193880    -8.8665908737
   44      H       0.8410294055    -0.1509955049    -9.7759950319
   45      C       2.8113196238    -0.2193343682    -8.9680146381
   46      H       3.2760979906    -0.2135060817    -9.9461407827
   47      C       1.2315044650    -0.2598161270    -5.0879898664
   48      C       0.0307557987    -0.2558574996    -4.3857139555
   49      H      -0.9074366033    -0.2292111637    -4.9293676237
   50      C       0.0282070676    -0.2916115145    -3.0021102085
   51      C       2.7027961245    -0.5107184118     0.0358507010
   52      C       3.5132508375     0.6067383681     0.2600122658
   53      C       4.7291465727     0.4837194921     0.9326484414
   54      H       5.3270305316     1.3732007014     1.0908908352
   55      C       5.1539512795    -0.7587202264     1.3863570933
   56      O       6.3128386005    -0.9757234698     2.0437285676
   57      C       4.3539719767    -1.8770013726     1.1641601576
   58      H       4.6904695315    -2.8461708122     1.5169502192
   59      C       3.1427642413    -1.7624149644     0.5000517921
   60      C       7.1553847919     0.1249714182     2.2975574266
   61      H       8.0213474499    -0.2626792124     2.8295348648
   62      H       7.4972984761     0.6034800147     1.3752604146
   63      H       6.6703994422     0.8798248829     2.9232543811
   64      C       3.0661628672     1.9822685783    -0.1659713947
   65      H       2.4930188918     1.9246092054    -1.0949816933
   66      H       3.9398690683     2.5995742741    -0.3894004452
   67      C       2.3427861173    -3.0149195645     0.2394037730
   68      H       1.2728740525    -2.7926458571     0.2478246555
   69      H       2.5080661503    -3.7280716875     1.0506571829
   70      C       2.2193165265     2.6752095526     0.8997018096
   71      H       1.3100940699     2.1115026291     1.1104772399
   72      H       1.9224936661     3.6727745619     0.5735624616
   73      H       2.7714151590     2.7771896513     1.8347505238
   74      C       2.7061063729    -3.6773712590    -1.0887445194
   75      H       2.5112375581    -3.0128535166    -1.9309584826
   76      H       3.7623895343    -3.9477524354    -1.1169935341
   77      H       2.1231405927    -4.5864652332    -1.2426631247
   78      C      -2.6750407822    -0.3230405551    -2.9969851141
   79      C      -3.1945064080    -1.5292579908    -3.4791964667
   80      C      -4.4049554796    -1.5666146717    -4.1713195235
   81      H      -4.7692594710    -2.5244111901    -4.5236360687
   82      C      -5.1215662087    -0.3990540345    -4.3927253205
   83      O      -6.3002934946    -0.3374611999    -5.0479993372
   84      C      -4.6151121674     0.8075166798    -3.9169900829
   85      H      -5.1742869785     1.7206173037    -4.0923443062
   86      C      -3.4114591259     0.8517956900    -3.2303067806
   87      C      -6.8585141173    -1.5346377303    -5.5412193835
   88      H      -7.7945938110    -1.2647537634    -6.0250895561
   89      H      -7.0721623287    -2.2500029241    -4.7417211990
   90      H      -6.2116533258    -2.0188273320    -6.2785597089
   91      C      -2.8862280769     2.1978787395    -2.8031192654
   92      H      -3.7202184110     2.8385845244    -2.5060200580
   93      H      -2.2516519859     2.0979767147    -1.9189726440
   94      C      -2.5036700003    -2.8434779782    -3.2134962803
   95      H      -1.4309007100    -2.6903422894    -3.0743201421
   96      H      -2.6044396718    -3.4940404151    -4.0862991103
   97      C      -2.0987792265     2.8841363742    -3.9176284812
   98      H      -1.2315624664     2.2912047439    -4.2096150301
   99      H      -2.7181029352     3.0249770856    -4.8043671030
  100      H      -1.7405705227     3.8635923982    -3.5985455562
  101      C      -3.0747378598    -3.5528111033    -1.9874257148
  102      H      -2.9649014825    -2.9386259730    -1.0928805702
  103      H      -4.1369627663    -3.7651966501    -2.1158405691
  104      H      -2.5629030875    -4.4991717309    -1.8084702418
 ----------------------------------------------------------------

   16   -2280.6626765279      6.48E-09 Convergence criterion met
 Total energy in the final basis set = -2280.66267653
 Final energy is   -2280.66267652793
 **  OPTIMIZATION CONVERGED  **

                    Orbital Energies (a.u.)
 --------------------------------------------------------------

 Alpha MOs
 -- Occupied --
-19.526 -19.526 -10.504 -10.503 -10.487 -10.486 -10.482 -10.482
-10.472 -10.469 -10.469 -10.468 -10.466 -10.466 -10.465 -10.465
-10.464 -10.464 -10.463 -10.463 -10.463 -10.463 -10.462 -10.461
-10.461 -10.460 -10.460 -10.460 -10.458 -10.457 -10.457 -10.455
-10.452 -10.452 -10.451 -10.451 -10.451 -10.450 -10.450 -10.449
-10.437 -10.437 -10.434 -10.433 -10.433 -10.433 -10.432 -10.432
-10.431 -10.431 -10.420 -10.420 -10.420 -10.420 -10.418 -10.417
 -6.937  -6.935  -1.182  -1.181  -1.028  -1.017  -0.969  -0.961
 -0.956  -0.955  -0.938  -0.933  -0.915  -0.902  -0.888  -0.888
 -0.873  -0.864  -0.863  -0.854  -0.853  -0.846  -0.828  -0.823
 -0.818  -0.817  -0.812  -0.807  -0.802  -0.801  -0.773  -0.772
 -0.744  -0.737  -0.727  -0.722  -0.711  -0.711  -0.703  -0.702
 -0.691  -0.689  -0.681  -0.670  -0.657  -0.648  -0.647  -0.645
 -0.630  -0.629  -0.602  -0.594  -0.592  -0.589  -0.584  -0.583
 -0.582  -0.577  -0.577  -0.563  -0.562  -0.546  -0.544  -0.537
 -0.532  -0.532  -0.530  -0.523  -0.521  -0.510  -0.506  -0.505
 -0.505  -0.502  -0.502  -0.499  -0.498  -0.494  -0.492  -0.489
 -0.487  -0.486  -0.482  -0.481  -0.481  -0.480  -0.477  -0.465
 -0.462  -0.459  -0.458  -0.457  -0.455  -0.452  -0.445  -0.444
 -0.441  -0.436  -0.435  -0.431  -0.430  -0.429  -0.428  -0.417
 -0.413  -0.412  -0.409  -0.408  -0.406  -0.401  -0.401  -0.400
 -0.398  -0.396  -0.395  -0.392  -0.391  -0.388  -0.387  -0.382
 -0.379  -0.379  -0.364  -0.364  -0.361  -0.358  -0.355  -0.354
 -0.343  -0.342  -0.339  -0.319  -0.312  -0.298  -0.295  -0.278
 -0.277  -0.276  -0.267  -0.259  -0.253  -0.251  -0.184

 Beta MOs
 -- Occupied --
-19.526 -19.526 -10.504 -10.503 -10.482 -10.482 -10.480 -10.480
-10.472 -10.472 -10.471 -10.467 -10.466 -10.465 -10.465 -10.464
-10.464 -10.463 -10.463 -10.462 -10.462 -10.462 -10.461 -10.461
-10.461 -10.460 -10.460 -10.460 -10.459 -10.457 -10.457 -10.452
-10.452 -10.451 -10.450 -10.450 -10.450 -10.449 -10.449 -10.446
-10.437 -10.436 -10.434 -10.433 -10.433 -10.433 -10.432 -10.432
-10.431 -10.431 -10.420 -10.420 -10.420 -10.420 -10.418 -10.417
 -6.936  -6.933  -1.182  -1.181  -1.021  -1.016  -0.962  -0.958
 -0.955  -0.954  -0.934  -0.932  -0.909  -0.901  -0.888  -0.888
 -0.870  -0.863  -0.863  -0.854  -0.849  -0.846  -0.821  -0.821
 -0.816  -0.815  -0.812  -0.801  -0.801  -0.797  -0.772  -0.771
 -0.735  -0.734  -0.727  -0.719  -0.711  -0.711  -0.703  -0.702
 -0.689  -0.682  -0.678  -0.668  -0.656  -0.646  -0.646  -0.644
 -0.630  -0.629  -0.599  -0.592  -0.590  -0.587  -0.583  -0.583
 -0.582  -0.575  -0.575  -0.562  -0.561  -0.544  -0.542  -0.535
 -0.532  -0.532  -0.528  -0.522  -0.518  -0.509  -0.505  -0.504
 -0.502  -0.502  -0.499  -0.498  -0.493  -0.492  -0.487  -0.486
 -0.485  -0.483  -0.482  -0.481  -0.480  -0.479  -0.476  -0.465
 -0.461  -0.458  -0.457  -0.455  -0.454  -0.451  -0.443  -0.439
 -0.436  -0.434  -0.430  -0.429  -0.429  -0.427  -0.417  -0.416
 -0.412  -0.411  -0.408  -0.406  -0.400  -0.400  -0.399  -0.397
 -0.395  -0.395  -0.394  -0.391  -0.390  -0.387  -0.381  -0.381
 -0.377  -0.367  -0.363  -0.363  -0.357  -0.356  -0.355  -0.341
 -0.340  -0.338  -0.329  -0.316  -0.298  -0.295  -0.277  -0.276
 -0.269  -0.263  -0.257  -0.252  -0.250

          Ground-State Mulliken Net Atomic Charges

     Atom                 Charge (a.u.)    Spin (a.u.)
  --------------------------------------------------------
      1 C                    -0.142351       0.011283
      2 C                    -0.403368      -0.002105
      3 H                     0.248985      -0.000355
      4 C                     0.087500       0.027808
      5 C                     0.181637      -0.018359
      6 C                    -0.398170       0.021552
      7 H                     0.251636      -0.001250
      8 C                    -0.232023      -0.015370
      9 H                     0.256607       0.000747
     10 C                    -0.350955       0.021142
     11 H                     0.253560      -0.001204
     12 C                    -0.066841       0.017504
     13 C                     0.220667      -0.013939
     14 C                     0.174879      -0.020974
     15 C                    -0.391926       0.024694
     16 H                     0.251739      -0.001430
     17 C                    -0.233615      -0.016717
     18 H                     0.256832       0.000799
     19 C                    -0.348810       0.024085
     20 H                     0.253322      -0.001380
     21 C                     0.080820       0.038646
     22 C                    -0.400653      -0.012108
     23 H                     0.245836       0.000179
     24 C                    -0.145944       0.019640
     25 B                     0.604165       0.168362
     26 B                     0.606360       0.166068
     27 C                    -0.137413       0.404808
     28 C                    -0.374990      -0.278152
     29 H                     0.259548       0.011371
     30 C                     0.078905       0.450269
     31 C                     0.192414      -0.211264
     32 C                    -0.389431       0.286669
     33 H                     0.252199      -0.016759
     34 C                    -0.229870      -0.197893
     35 H                     0.258088       0.009455
     36 C                    -0.355010       0.302153
     37 H                     0.254967      -0.017448
     38 C                    -0.067579       0.276093
     39 C                     0.226919      -0.193271
     40 C                     0.185040      -0.198844
     41 C                    -0.379922       0.307293
     42 H                     0.253813      -0.018077
     43 C                    -0.229736      -0.206295
     44 H                     0.260205       0.009646
     45 C                    -0.349483       0.339730
     46 H                     0.256752      -0.019607
     47 C                     0.070177       0.453368
     48 C                    -0.374285      -0.245945
     49 H                     0.258983       0.009583
     50 C                    -0.136872       0.325265
     51 C                    -0.219174      -0.017982
     52 C                     0.070750       0.003769
     53 C                    -0.447098      -0.000757
     54 H                     0.253143       0.000240
     55 C                     0.387389       0.001382
     56 O                    -0.470209       0.000271
     57 C                    -0.403791      -0.001271
     58 H                     0.236678       0.000289
     59 C                     0.065935       0.002819
     60 C                    -0.428342      -0.000038
     61 H                     0.252974       0.000003
     62 H                     0.219394       0.000026
     63 H                     0.219850       0.000025
     64 C                    -0.545656       0.004142
     65 H                     0.250509      -0.001745
     66 H                     0.237756       0.000195
     67 C                    -0.551101       0.001129
     68 H                     0.255231      -0.001153
     69 H                     0.240668       0.000075
     70 C                    -0.658392      -0.000021
     71 H                     0.239769      -0.000217
     72 H                     0.226722      -0.000003
     73 H                     0.220655       0.000054
     74 C                    -0.657871       0.000288
     75 H                     0.236188      -0.000519
     76 H                     0.222027       0.000096
     77 H                     0.226618      -0.000033
     78 C                    -0.219986      -0.017152
     79 C                     0.058469       0.002340
     80 C                    -0.442902      -0.000319
     81 H                     0.252952       0.000197
     82 C                     0.387096       0.000414
     83 O                    -0.470776       0.000064
     84 C                    -0.397040      -0.000645
     85 H                     0.236254       0.000256
     86 C                     0.065145       0.001977
     87 C                    -0.428129      -0.000013
     88 H                     0.252955       0.000002
     89 H                     0.220007       0.000006
     90 H                     0.219473       0.000008
     91 C                    -0.547231       0.001596
     92 H                     0.239861       0.000168
     93 H                     0.252263      -0.001330
     94 C                    -0.548916       0.004711
     95 H                     0.254760      -0.002362
     96 H                     0.238259       0.000073
     97 C                    -0.656613      -0.000585
     98 H                     0.233929       0.000087
     99 H                     0.221863      -0.000006
    100 H                     0.226828       0.000007
    101 C                    -0.654743      -0.000124
    102 H                     0.235772      -0.000099
    103 H                     0.220385       0.000199
    104 H                     0.226133       0.000001
  --------------------------------------------------------
  Sum of atomic charges =    -0.000000

                    Cartesian Multipole Moments
 -----------------------------------------------------------------
    Charge (ESU x 10^10)
                -0.0000
    Dipole Moment (Debye)
         X       1.4077      Y      -0.0148      Z      -2.4921
       Tot       2.8623
    Quadrupole Moments (Debye-Ang)
        XX    -280.4130     XY      20.3889     YY    -336.3089
        XZ      -9.1303     YZ      12.5473     ZZ    -263.8066

 Total job time:  42179.15s(wall), 116409.05s(cpu)
        *  Thank you very much for using Q-Chem.  Have a nice day.  *
