 Q-Chem 5.0, Q-Chem, Inc., Pleasanton, CA (2017)
 Q-Chem 5.0.1 for Intel X86 EM64T Linux

User input:
--------------------------------------------------------------
$rem
threads 4
jobtype	opt
method PBEh-3c
basis def2-mSVP
mem_static	1024
mem_total	4000
sym_ignore	true
scf_convergence	9
solvent_method	pcm
$end

$molecule
read gsopt.mol
$end

$solvent
dielectric	2.03
$end

$pcm
theory iefpcm
$end
--------------------------------------------------------------

   17   -2202.2664549429      4.81E-10 Convergence criterion met
 Total energy in the final basis set = -2202.26645494
   15   -2202.2682307631      4.84E-10 Convergence criterion met
 Total energy in the final basis set = -2202.26823076
   15   -2202.2688696914      4.10E-10 Convergence criterion met
 Total energy in the final basis set = -2202.26886969
   14   -2202.2687780695      9.74E-10 Convergence criterion met
 Total energy in the final basis set = -2202.26877807
   14   -2202.2689041960      9.12E-10 Convergence criterion met
 Total energy in the final basis set = -2202.26890420
   14   -2202.2690604806      8.99E-10 Convergence criterion met
 Total energy in the final basis set = -2202.26906048
   14   -2202.2690201019      8.74E-10 Convergence criterion met
 Total energy in the final basis set = -2202.26902010
   14   -2202.2690346587      7.20E-10 Convergence criterion met
 Total energy in the final basis set = -2202.26903466
   14   -2202.2690442830      7.43E-10 Convergence criterion met
 Total energy in the final basis set = -2202.26904428
   14   -2202.2690367024      7.53E-10 Convergence criterion met
 Total energy in the final basis set = -2202.26903670
   14   -2202.2690316196      6.89E-10 Convergence criterion met
 Total energy in the final basis set = -2202.26903162
   14   -2202.2690301309      6.86E-10 Convergence criterion met
 Total energy in the final basis set = -2202.26903013
   14   -2202.2690287583      6.84E-10 Convergence criterion met
 Total energy in the final basis set = -2202.26902876

             Standard Nuclear Orientation (Angstroms)
    I     Atom           X                Y                Z
 ----------------------------------------------------------------
    1      C       0.0640392436    -0.4818116923     0.0783896730
    2      C       0.0584646179    -0.4887433870     1.4794698096
    3      H       0.9987842164    -0.4942051405     2.0201716342
    4      C      -1.1423952560    -0.4854189106     2.1703635654
    5      C      -2.3591041110    -0.4660883018     1.4531630945
    6      C      -2.3662632090    -0.4529400226     0.0722332855
    7      H      -3.3062320841    -0.4373112994    -0.4693290899
    8      C      -1.1616089243    -0.4622671634    -0.6311479410
    9      C      -1.4697017894    -0.4949960364     3.6008151589
   10      C      -0.7566051195    -0.5138470560     4.7699289737
   11      H       0.3260910005    -0.5256958916     4.7805551414
   12      C      -2.8765720989    -0.4810829190     3.6820186220
   13      C      -3.6041232447    -0.4849109284     4.8661145127
   14      C      -3.4639276889    -0.4629059488     2.4047223415
   15      C      -4.8301185865    -0.4471831886     2.2983081370
   16      H      -5.3300971816    -0.4321676035     1.3373552715
   17      C      -1.4676657967    -0.5181366964     5.9950834208
   18      H      -0.9016444587    -0.5332140759     6.9171648625
   19      C      -2.8418464891    -0.5043215076     6.0582272823
   20      H      -3.3383021011    -0.5084161864     7.0207846290
   21      C      -5.5956162863    -0.4505052579     3.4876322929
   22      H      -6.6750511801    -0.4380171840     3.4092719573
   23      C      -5.0150096614    -0.4688489100     4.7349662946
   24      H      -5.6410677271    -0.4707351082     5.6188597329
   25      B      -1.1808089901    -0.4472932568    -2.1859874067
   26      B       1.4092075799    -0.4892254127    -0.7087781546
   27      C       1.3979837905    -0.5315195656    -2.2652659251
   28      C       2.6007588574    -0.6066033428    -2.9788595503
   29      H       3.5410786687    -0.6442544495    -2.4401114130
   30      C       2.5841179232    -0.6344831219    -4.3635651795
   31      C       1.3503616154    -0.5737059576    -5.0481467502
   32      C       0.1583224672    -0.5018157748    -4.3561186038
   33      H      -0.7824681857    -0.4604731461    -4.8939880983
   34      C       0.1657361097    -0.4904080984    -2.9616714926
   35      C       1.6093567632    -0.6141287084    -6.4837544454
   36      C       0.8280805261    -0.5899722430    -7.6098677134
   37      H      -0.2516324646    -0.5217395275    -7.5564203818
   38      C       3.0044007209    -0.7038504190    -6.6255084440
   39      C       3.6538777091    -0.7740799812    -7.8538647515
   40      C       3.6479436852    -0.7204735368    -5.3727766704
   41      C       5.0146436833    -0.8136578469    -5.3547074268
   42      H       5.5744645224    -0.8353880383    -4.4282591094
   43      C       1.4619650248    -0.6575420308    -8.8729158875
   44      H       0.8466155595    -0.6382367849    -9.7631757831
   45      C       2.8281669873    -0.7477212287    -9.0047007981
   46      H       3.2724195146    -0.7988545866    -9.9913543617
   47      C       5.0645228386    -0.8676782498    -7.8041318928
   48      H       5.6382357885    -0.9268434462    -8.7210350601
   49      C       5.7073377038    -0.8857324461    -6.5883506732
   50      H       6.7867346019    -0.9594232123    -6.5678454304
   51      C       2.7724440522    -0.4726409162     0.0632909755
   52      C       3.4797740382     0.7108121836     0.2670322830
   53      C       4.6828188873     0.7053511598     0.9744527085
   54      H       5.2044979876     1.6440945381     1.1147582996
   55      C       5.1914820862    -0.4843929938     1.4751775433
   56      O       6.3436275574    -0.5918818163     2.1697287456
   57      C       4.4961390907    -1.6735065398     1.2581657947
   58      H       4.9091704520    -2.6004595198     1.6390783779
   59      C       3.3004627438    -1.6751378092     0.5630348629
   60      C       7.0812973715     0.5765414434     2.4254149188
   61      H       7.9514934983     0.2750188727     3.0044882008
   62      H       7.4257835560     1.0588731792     1.5051423982
   63      H       6.5107830822     1.3066971313     3.0080166567
   64      C       2.5672583982    -2.9675183243     0.3278491520
   65      H       3.1292840816    -3.8249441093     0.6966943167
   66      H       1.5950044467    -2.9732221432     0.8252819590
   67      H       2.3793620448    -3.1315567522    -0.7359677152
   68      C       2.9375270796     2.0259637009    -0.2319979699
   69      H       3.7673603084     2.6894452566    -0.4890926574
   70      H       2.3799154283     1.8767412230    -1.1610656763
   71      C       2.0378287388     2.7180156972     0.7902427466
   72      H       1.1601186735     2.1140412473     1.0212846724
   73      H       1.6867067111     3.6790335394     0.4123716897
   74      H       2.5705051325     2.8987928822     1.7246096391
   75      C      -2.5401913981    -0.3777148769    -2.9747612314
   76      C      -3.1438482168    -1.5238410223    -3.4902783936
   77      C      -4.3381635799    -1.4403536785    -4.2085678596
   78      H      -4.7740610851    -2.3541905022    -4.5948378638
   79      C      -4.9412138178    -0.2111033859    -4.4225077586
   80      O      -6.0922673781    -0.0314736081    -5.1040617458
   81      C      -4.3402288080     0.9409206994    -3.9169761490
   82      H      -4.8109806168     1.9005093190    -4.0966895546
   83      C      -3.1580218808     0.8653888668    -3.2026960166
   84      C      -6.7371232132    -1.1605484520    -5.6382561063
   85      H      -7.6362369639    -0.8003409533    -6.1336756382
   86      H      -7.0294406378    -1.8759741421    -4.8632859128
   87      H      -6.1183838822    -1.6809272136    -6.3760501234
   88      C      -2.5215297458     2.1228739338    -2.6807464213
   89      H      -3.0879011457     3.0096550351    -2.9630361593
   90      H      -2.4489356020     2.1113082359    -1.5913961879
   91      H      -1.5071217947     2.2449869286    -3.0676357277
   92      C      -2.5595853116    -2.8925658394    -3.2481118847
   93      H      -1.4809923835    -2.8249433525    -3.0820413487
   94      H      -2.6823675737    -3.5062329955    -4.1447115062
   95      C      -3.2106709641    -3.5979932176    -2.0605732892
   96      H      -3.0609703901    -3.0350441133    -1.1389974072
   97      H      -2.7870358027    -4.5923820111    -1.9157525509
   98      H      -4.2853360607    -3.7099461802    -2.2097220995
 ----------------------------------------------------------------

   14   -2202.2690289321      6.83E-10 Convergence criterion met
 Total energy in the final basis set = -2202.26902893
 Final energy is   -2202.26902893206
 **  OPTIMIZATION CONVERGED  **

                    Orbital Energies (a.u.)
 --------------------------------------------------------------

 Alpha MOs
 -- Occupied --
-19.524 -19.524 -10.501 -10.500 -10.485 -10.485 -10.463 -10.463
-10.463 -10.463 -10.462 -10.462 -10.462 -10.462 -10.460 -10.460
-10.460 -10.460 -10.460 -10.459 -10.459 -10.459 -10.458 -10.457
-10.457 -10.457 -10.457 -10.457 -10.453 -10.452 -10.451 -10.451
-10.450 -10.449 -10.449 -10.448 -10.445 -10.445 -10.433 -10.432
-10.432 -10.432 -10.432 -10.432 -10.431 -10.430 -10.429 -10.429
-10.424 -10.424 -10.419 -10.418 -10.415 -10.413  -6.946  -6.946
 -1.181  -1.180  -1.014  -1.014  -0.961  -0.957  -0.953  -0.952
 -0.931  -0.931  -0.907  -0.899  -0.882  -0.881  -0.859  -0.853
 -0.852  -0.848  -0.845  -0.844  -0.820  -0.815  -0.815  -0.811
 -0.810  -0.803  -0.774  -0.772  -0.762  -0.762  -0.732  -0.727
 -0.724  -0.718  -0.707  -0.707  -0.687  -0.679  -0.677  -0.663
 -0.657  -0.646  -0.645  -0.644  -0.636  -0.635  -0.592  -0.591
 -0.589  -0.586  -0.583  -0.582  -0.581  -0.573  -0.572  -0.559
 -0.559  -0.542  -0.541  -0.535  -0.532  -0.532  -0.525  -0.521
 -0.511  -0.505  -0.500  -0.498  -0.496  -0.495  -0.494  -0.491
 -0.490  -0.488  -0.483  -0.483  -0.482  -0.479  -0.476  -0.473
 -0.472  -0.470  -0.467  -0.465  -0.463  -0.462  -0.460  -0.452
 -0.446  -0.442  -0.438  -0.437  -0.433  -0.427  -0.426  -0.423
 -0.422  -0.421  -0.417  -0.413  -0.412  -0.408  -0.404  -0.403
 -0.396  -0.393  -0.393  -0.392  -0.390  -0.388  -0.384  -0.382
 -0.377  -0.371  -0.366  -0.363  -0.361  -0.355  -0.353  -0.349
 -0.338  -0.337  -0.317  -0.311  -0.294  -0.293  -0.279  -0.274
 -0.274  -0.260  -0.255  -0.254  -0.250  -0.247

          Ground-State Mulliken Net Atomic Charges

     Atom                 Charge (a.u.)
  ----------------------------------------
      1 C                    -0.152886
      2 C                    -0.403650
      3 H                     0.244283
      4 C                     0.105872
      5 C                     0.079840
      6 C                    -0.395631
      7 H                     0.242936
      8 C                    -0.149828
      9 C                     0.189936
     10 C                    -0.392703
     11 H                     0.235056
     12 C                    -0.064392
     13 C                     0.240533
     14 C                     0.188525
     15 C                    -0.383073
     16 H                     0.235018
     17 C                    -0.215647
     18 H                     0.239546
     19 C                    -0.344106
     20 H                     0.234697
     21 C                    -0.218826
     22 H                     0.239969
     23 C                    -0.339418
     24 H                     0.234287
     25 B                     0.680001
     26 B                     0.680240
     27 C                    -0.156846
     28 C                    -0.392177
     29 H                     0.240007
     30 C                     0.104971
     31 C                     0.078858
     32 C                    -0.381574
     33 H                     0.239415
     34 C                    -0.157258
     35 C                     0.188684
     36 C                    -0.383562
     37 H                     0.234295
     38 C                    -0.063512
     39 C                     0.239957
     40 C                     0.189455
     41 C                    -0.393607
     42 H                     0.234597
     43 C                    -0.218437
     44 H                     0.239551
     45 C                    -0.339190
     46 H                     0.234128
     47 C                    -0.344109
     48 H                     0.234573
     49 C                    -0.215234
     50 H                     0.239148
     51 C                    -0.220359
     52 C                     0.078453
     53 C                    -0.439587
     54 H                     0.234475
     55 C                     0.396837
     56 O                    -0.461223
     57 C                    -0.394600
     58 H                     0.229132
     59 C                     0.057847
     60 C                    -0.416243
     61 H                     0.245889
     62 H                     0.210655
     63 H                     0.210656
     64 C                    -0.767488
     65 H                     0.243710
     66 H                     0.248713
     67 H                     0.247303
     68 C                    -0.553299
     69 H                     0.232094
     70 H                     0.254862
     71 C                    -0.650496
     72 H                     0.243210
     73 H                     0.221949
     74 H                     0.216382
     75 C                    -0.227152
     76 C                     0.075852
     77 C                    -0.433895
     78 H                     0.234720
     79 C                     0.397189
     80 O                    -0.461204
     81 C                    -0.393861
     82 H                     0.229600
     83 C                     0.056595
     84 C                    -0.416309
     85 H                     0.246264
     86 H                     0.210687
     87 H                     0.210667
     88 C                    -0.766560
     89 H                     0.243814
     90 H                     0.248287
     91 H                     0.246863
     92 C                    -0.550452
     93 H                     0.255181
     94 H                     0.232292
     95 C                    -0.645976
     96 H                     0.237775
     97 H                     0.222786
     98 H                     0.215256
  ----------------------------------------
  Sum of atomic charges =    -0.000000

                    Cartesian Multipole Moments
 -----------------------------------------------------------------
    Charge (ESU x 10^10)
                -0.0000
    Dipole Moment (Debye)
         X      -0.1464      Y      -0.1345      Z      -0.2146
       Tot       0.2925
    Quadrupole Moments (Debye-Ang)
        XX    -273.1629     XY      17.5542     YY    -323.5039
        XZ      -1.1998     YZ      12.0610     ZZ    -270.0288

 Total job time:  34486.09s(wall), 80000.37s(cpu)
        *  Thank you very much for using Q-Chem.  Have a nice day.  *
