 Q-Chem 5.0, Q-Chem, Inc., Pleasanton, CA (2017)
 Q-Chem 5.0.1 for Intel X86 EM64T Linux

User input:
--------------------------------------------------------------
$rem
threads 4
jobtype	opt
method PBEh-3c
basis def2-mSVP
mem_static	1024
mem_total	4000
sym_ignore	true
scf_convergence	9
solvent_method	pcm
$end

$molecule
read gsopt.mol
$end

$solvent
dielectric	8.93
$end

$pcm
theory iefpcm
$end
--------------------------------------------------------------

   17   -2202.2809881967      2.97E-10 Convergence criterion met
 Total energy in the final basis set = -2202.28098820
   15   -2202.2828746501      5.80E-10 Convergence criterion met
 Total energy in the final basis set = -2202.28287465
   15   -2202.2835124769      5.37E-10 Convergence criterion met
 Total energy in the final basis set = -2202.28351248
   15   -2202.2833857584      4.96E-10 Convergence criterion met
 Total energy in the final basis set = -2202.28338576
   15   -2202.2835391868      4.72E-10 Convergence criterion met
 Total energy in the final basis set = -2202.28353919
   15   -2202.2836882871      4.67E-10 Convergence criterion met
 Total energy in the final basis set = -2202.28368829
   15   -2202.2836524257      4.29E-10 Convergence criterion met
 Total energy in the final basis set = -2202.28365243
   15   -2202.2836505026      4.18E-10 Convergence criterion met
   15   -2202.2836335912      4.36E-10 Convergence criterion met
 Total energy in the final basis set = -2202.28363359
   15   -2202.2836141353      4.33E-10 Convergence criterion met
 Total energy in the final basis set = -2202.28361414
   15   -2202.2836112604      4.18E-10 Convergence criterion met
 Total energy in the final basis set = -2202.28361126
   15   -2202.2836079130      4.20E-10 Convergence criterion met
 Total energy in the final basis set = -2202.28360791
   15   -2202.2836033808      4.18E-10 Convergence criterion met
 Total energy in the final basis set = -2202.28360338
   15   -2202.2836060346      4.16E-10 Convergence criterion met
 Total energy in the final basis set = -2202.28360603

             Standard Nuclear Orientation (Angstroms)
    I     Atom           X                Y                Z
 ----------------------------------------------------------------
    1      C       0.0701110054    -0.4896466055     0.0790034487
    2      C       0.0643142521    -0.5026925634     1.4802407332
    3      H       1.0027521827    -0.5069973908     2.0240028479
    4      C      -1.1372172826    -0.5087297460     2.1711159956
    5      C      -2.3543693942    -0.4911627154     1.4534710690
    6      C      -2.3612852240    -0.4694825298     0.0720287870
    7      H      -3.3025700935    -0.4535104055    -0.4668949066
    8      C      -1.1561325175    -0.4713167298    -0.6310531393
    9      C      -1.4643325620    -0.5276012438     3.6015152322
   10      C      -0.7505859596    -0.5490146881     4.7711351422
   11      H       0.3322170818    -0.5553820248     4.7821888359
   12      C      -2.8716501266    -0.5211697238     3.6819628029
   13      C      -3.5996345038    -0.5349957223     4.8664216870
   14      C      -3.4595684520    -0.4988725047     2.4045768710
   15      C      -4.8265752849    -0.4896434466     2.2975780649
   16      H      -5.3266777454    -0.4722913830     1.3366480980
   17      C      -1.4625085759    -0.5633405525     5.9963716508
   18      H      -0.8964459119    -0.5803239517     6.9184321618
   19      C      -2.8376235129    -0.5568887386     6.0593513885
   20      H      -3.3349494752    -0.5686328890     7.0214259416
   21      C      -5.5920972126    -0.5032773277     3.4874871360
   22      H      -6.6715974255    -0.4960326281     3.4089412975
   23      C      -5.0111857513    -0.5253424104     4.7355952388
   24      H      -5.6367300368    -0.5351891040     5.6198400478
   25      B      -1.1758723210    -0.4505491382    -2.1861744008
   26      B       1.4157308663    -0.4887604227    -0.7079019331
   27      C       1.4039615747    -0.5397522237    -2.2647792599
   28      C       2.6071310468    -0.6168325408    -2.9780122436
   29      H       3.5491515320    -0.6463510328    -2.4418560695
   30      C       2.5906258938    -0.6574163174    -4.3629737619
   31      C       1.3559514566    -0.6081918021    -5.0482578702
   32      C       0.1634895076    -0.5310460210    -4.3563185590
   33      H      -0.7758523072    -0.4963265273    -4.8970793010
   34      C       0.1710811961    -0.5055776743    -2.9617573475
   35      C       1.6147153561    -0.6610246944    -6.4835319777
   36      C       0.8325499500    -0.6507317026    -7.6102214065
   37      H      -0.2476275249    -0.5883165587    -7.5575495618
   38      C       3.0106410636    -0.7445377503    -6.6240049782
   39      C       3.6608187503    -0.8207151457    -7.8523079374
   40      C       3.6550947143    -0.7466049530    -5.3712326398
   41      C       5.0232106755    -0.8302568855    -5.3521557757
   42      H       5.5836147416    -0.8396438333    -4.4257686772
   43      C       1.4674924713    -0.7253817990    -8.8729717407
   44      H       0.8519471652    -0.7172008575    -9.7632984835
   45      C       2.8350816972    -0.8085653906    -9.0040733258
   46      H       3.2804498104    -0.8650989165    -9.9899584826
   47      C       5.0726521912    -0.9045022447    -7.8025339062
   48      H       5.6459906739    -0.9671697373    -8.7194699554
   49      C       5.7161332831    -0.9079813707    -6.5859664788
   50      H       6.7960505408    -0.9737922272    -6.5648974002
   51      C       2.7794118776    -0.4554100417     0.0633115909
   52      C       3.4721628051     0.7377243890     0.2643536878
   53      C       4.6772571285     0.7497999821     0.9690717968
   54      H       5.1871748089     1.6953787883     1.1068229098
   55      C       5.2024679244    -0.4331246527     1.4705264287
   56      O       6.3571270162    -0.5238622300     2.1626147782
   57      C       4.5215789148    -1.6321555523     1.2567431252
   58      H       4.9449442498    -2.5548057024     1.6378016963
   59      C       3.3236663430    -1.6504452641     0.5639362700
   60      C       7.0801125859     0.6587346983     2.4188987070
   61      H       7.9538030221     0.3695909196     2.9986167268
   62      H       7.4165534843     1.1438613300     1.4979190783
   63      H       6.4970990955     1.3793283245     2.9997501932
   64      C       2.6074129770    -2.9532487352     0.3338770599
   65      H       3.1798059014    -3.8014279922     0.7080908986
   66      H       1.6346506245    -2.9686278063     0.8303478020
   67      H       2.4226668807    -3.1246841716    -0.7294049643
   68      C       2.9125560312     2.0456008068    -0.2349990491
   69      H       3.7333320119     2.7163781325    -0.5011186981
   70      H       2.3465414825     1.8871175152    -1.1575333108
   71      C       2.0161388810     2.7329322708     0.7934236472
   72      H       1.1489515208     2.1190058528     1.0387288876
   73      H       1.6489248764     3.6867483755     0.4125891175
   74      H       2.5579852750     2.9276886903     1.7197343920
   75      C      -2.5347008224    -0.3601304671    -2.9740135842
   76      C      -3.1604198103    -1.4975319488    -3.4831380732
   77      C      -4.3548179926    -1.3962013685    -4.2000534877
   78      H      -4.8086240699    -2.3035356324    -4.5810641367
   79      C      -4.9359296365    -0.1566129526    -4.4181493267
   80      O      -6.0847593488     0.0398348927    -5.0982502498
   81      C      -4.3134172088     0.9873288827    -3.9174668199
   82      H      -4.7660634028     1.9559325719    -4.0975581578
   83      C      -3.1306870087     0.8932775598    -3.2047602439
   84      C      -6.7504594896    -1.0835245285    -5.6302831187
   85      H      -7.6438587830    -0.7097426714    -6.1255336804
   86      H      -7.0518256105    -1.7905672578    -4.8520682487
   87      H      -6.1393795106    -1.6143626076    -6.3659935634
   88      C      -2.4734507280     2.1412898853    -2.6855195274
   89      H      -3.0270189560     3.0363465893    -2.9670590133
   90      H      -2.3990975336     2.1287743259    -1.5961707796
   91      H      -1.4577979146     2.2477609217    -3.0741028943
   92      C      -2.6017568533    -2.8762620216    -3.2366856741
   93      H      -1.5299257393    -2.8241100470    -3.0264081033
   94      H      -2.6972409993    -3.4775596343    -4.1447848233
   95      C      -3.3082048043    -3.5885852051    -2.0854322588
   96      H      -3.1995406909    -3.0325184870    -1.1536462546
   97      H      -2.8942768842    -4.5854851268    -1.9303477823
   98      H      -4.3750571212    -3.6966950316    -2.2853616827
 ----------------------------------------------------------------

   15   -2202.2836055961      4.16E-10 Convergence criterion met
 Total energy in the final basis set = -2202.28360560
 Final energy is   -2202.28360559609
 **  OPTIMIZATION CONVERGED  **

                    Orbital Energies (a.u.)
 --------------------------------------------------------------

 Alpha MOs
 -- Occupied --
-19.527 -19.527 -10.505 -10.505 -10.483 -10.482 -10.467 -10.467
-10.466 -10.466 -10.465 -10.465 -10.465 -10.464 -10.464 -10.464
-10.464 -10.464 -10.461 -10.461 -10.461 -10.461 -10.461 -10.461
-10.458 -10.458 -10.458 -10.458 -10.457 -10.457 -10.455 -10.455
-10.455 -10.454 -10.453 -10.453 -10.449 -10.449 -10.437 -10.437
-10.436 -10.436 -10.436 -10.435 -10.435 -10.435 -10.433 -10.433
-10.427 -10.426 -10.422 -10.421 -10.419 -10.418  -6.951  -6.951
 -1.183  -1.182  -1.018  -1.018  -0.965  -0.961  -0.957  -0.956
 -0.934  -0.933  -0.911  -0.902  -0.885  -0.884  -0.863  -0.856
 -0.856  -0.852  -0.847  -0.846  -0.824  -0.818  -0.817  -0.814
 -0.813  -0.806  -0.775  -0.774  -0.765  -0.764  -0.736  -0.729
 -0.727  -0.721  -0.710  -0.710  -0.689  -0.683  -0.680  -0.666
 -0.660  -0.649  -0.648  -0.646  -0.639  -0.638  -0.595  -0.594
 -0.590  -0.587  -0.585  -0.584  -0.583  -0.575  -0.574  -0.562
 -0.562  -0.545  -0.543  -0.537  -0.533  -0.533  -0.528  -0.523
 -0.514  -0.509  -0.503  -0.500  -0.498  -0.496  -0.495  -0.494
 -0.493  -0.491  -0.487  -0.487  -0.485  -0.481  -0.478  -0.474
 -0.474  -0.473  -0.470  -0.466  -0.465  -0.464  -0.462  -0.454
 -0.449  -0.445  -0.441  -0.439  -0.437  -0.429  -0.429  -0.427
 -0.425  -0.424  -0.420  -0.415  -0.414  -0.411  -0.407  -0.406
 -0.398  -0.396  -0.396  -0.394  -0.392  -0.391  -0.386  -0.385
 -0.381  -0.375  -0.369  -0.367  -0.364  -0.359  -0.357  -0.354
 -0.343  -0.341  -0.321  -0.316  -0.297  -0.296  -0.284  -0.279
 -0.279  -0.264  -0.260  -0.258  -0.254  -0.252

          Ground-State Mulliken Net Atomic Charges

     Atom                 Charge (a.u.)
  ----------------------------------------
      1 C                    -0.153715
      2 C                    -0.402988
      3 H                     0.251050
      4 C                     0.094354
      5 C                     0.069639
      6 C                    -0.394806
      7 H                     0.249288
      8 C                    -0.152671
      9 C                     0.179230
     10 C                    -0.397678
     11 H                     0.252630
     12 C                    -0.066918
     13 C                     0.221611
     14 C                     0.178012
     15 C                    -0.388437
     16 H                     0.252639
     17 C                    -0.231777
     18 H                     0.257309
     19 C                    -0.350535
     20 H                     0.254713
     21 C                    -0.234662
     22 H                     0.257768
     23 C                    -0.346218
     24 H                     0.254326
     25 B                     0.677942
     26 B                     0.677070
     27 C                    -0.157390
     28 C                    -0.394855
     29 H                     0.247298
     30 C                     0.093747
     31 C                     0.068379
     32 C                    -0.385380
     33 H                     0.246896
     34 C                    -0.158364
     35 C                     0.177819
     36 C                    -0.389050
     37 H                     0.251951
     38 C                    -0.065919
     39 C                     0.220912
     40 C                     0.178502
     41 C                    -0.398750
     42 H                     0.252272
     43 C                    -0.234314
     44 H                     0.257594
     45 C                    -0.345880
     46 H                     0.254320
     47 C                    -0.350456
     48 H                     0.254765
     49 C                    -0.231401
     50 H                     0.257054
     51 C                    -0.220390
     52 C                     0.068725
     53 C                    -0.449003
     54 H                     0.254369
     55 C                     0.389481
     56 O                    -0.469865
     57 C                    -0.409039
     58 H                     0.240397
     59 C                     0.051990
     60 C                    -0.428578
     61 H                     0.253464
     62 H                     0.220194
     63 H                     0.220124
     64 C                    -0.773740
     65 H                     0.253089
     66 H                     0.249684
     67 H                     0.248924
     68 C                    -0.553725
     69 H                     0.241688
     70 H                     0.253398
     71 C                    -0.657591
     72 H                     0.238340
     73 H                     0.227785
     74 H                     0.221552
     75 C                    -0.227838
     76 C                     0.069086
     77 C                    -0.442535
     78 H                     0.254808
     79 C                     0.389939
     80 O                    -0.469873
     81 C                    -0.409159
     82 H                     0.240777
     83 C                     0.049014
     84 C                    -0.428727
     85 H                     0.253712
     86 H                     0.220204
     87 H                     0.220325
     88 C                    -0.773189
     89 H                     0.253335
     90 H                     0.249144
     91 H                     0.248733
     92 C                    -0.550310
     93 H                     0.253530
     94 H                     0.241258
     95 C                    -0.653096
     96 H                     0.232925
     97 H                     0.228348
     98 H                     0.221388
  ----------------------------------------
  Sum of atomic charges =    -0.000000

                    Cartesian Multipole Moments
 -----------------------------------------------------------------
    Charge (ESU x 10^10)
                -0.0000
    Dipole Moment (Debye)
         X      -0.2184      Y      -0.1947      Z      -0.2825
       Tot       0.4067
    Quadrupole Moments (Debye-Ang)
        XX    -264.6456     XY      20.7920     YY    -321.6084
        XZ      -2.7130     YZ      14.0511     ZZ    -259.4632

 Total job time:  33489.25s(wall), 79223.64s(cpu)
        *  Thank you very much for using Q-Chem.  Have a nice day.  *
