 Q-Chem 5.1, Q-Chem, Inc., Pleasanton, CA (2018)
 Q-Chem 5.1.1 for Intel X86 EM64T Linux

User input:
--------------------------------------------------------------
$rem
threads 4
jobtype	opt
method PBEh-3c
basis def2-mSVP
mem_static	1024
mem_total	4000
sym_ignore	true
scf_convergence	9
solvent_method	pcm
$end

$molecule
read gsopt.mol
$end

$solvent
dielectric	4.33
$end

$pcm
theory iefpcm
$end
--------------------------------------------------------------

   17   -1855.5537979816      5.13e-10  Convergence criterion met
 Total energy in the final basis set =    -1855.5537979816
   16   -1855.5544542548      4.38e-10  Convergence criterion met
 Total energy in the final basis set =    -1855.5544542548
   16   -1855.5544332517      3.72e-10  Convergence criterion met
 Total energy in the final basis set =    -1855.5544332517
   16   -1855.5545537440      3.65e-10  Convergence criterion met
 Total energy in the final basis set =    -1855.5545537440
   16   -1855.5545404006      3.61e-10  Convergence criterion met
 Total energy in the final basis set =    -1855.5545404006
   16   -1855.5545109825      3.56e-10  Convergence criterion met
 Total energy in the final basis set =    -1855.5545109825
   16   -1855.5545026818      3.58e-10  Convergence criterion met
 Total energy in the final basis set =    -1855.5545026818
   16   -1855.5544761968      3.60e-10  Convergence criterion met
 Total energy in the final basis set =    -1855.5544761968
   16   -1855.5544688137      3.64e-10  Convergence criterion met
 Total energy in the final basis set =    -1855.5544688137
   16   -1855.5544635947      3.65e-10  Convergence criterion met
 Total energy in the final basis set =    -1855.5544635947

             Standard Nuclear Orientation (Angstroms)
    I     Atom           X                Y                Z
 ----------------------------------------------------------------
    1      N      -0.0157802184     0.0990536622    -0.0642280852
    2      C       0.0279536552    -0.0795910034     1.3230281574
    3      C       1.2453138673    -0.1784389968     1.9984158117
    4      H       2.1789666557    -0.0917623699     1.4608431644
    5      C       1.2698925125    -0.4043966357     3.3642399348
    6      H       2.2233217158    -0.4824919830     3.8705380950
    7      C       0.0868722035    -0.5467221823     4.0694734314
    8      H       0.0977958929    -0.7366525986     5.1344608486
    9      C      -1.1202408858    -0.4306453920     3.3960938975
   10      H      -2.0371025960    -0.5273213333     3.9610002551
   11      C      -1.1771851050    -0.1779260659     2.0315702687
   12      C      -1.1317015467    -0.3585857664    -0.7749379164
   13      C      -1.0529245661    -0.6806670107    -2.1322748693
   14      H      -0.1367276742    -0.5390144693    -2.6865783373
   15      C      -2.1511126864    -1.2000415436    -2.7964888978
   16      H      -2.0580934959    -1.4522835229    -3.8450754644
   17      C      -3.3424934061    -1.4071770539    -2.1228884614
   18      H      -4.2000004052    -1.8290575882    -2.6301776441
   19      C      -3.4318734870    -1.0418792542    -0.7880100859
   20      H      -4.3768361028    -1.1753768666    -0.2800397898
   21      C      -2.3550870769    -0.4931809237    -0.1029437219
   22      C       1.2087488342     0.2404590382    -0.7700073446
   23      C       1.7147998086     1.4924450686    -1.0613226695
   24      H       1.1971843850     2.3836230484    -0.7308647087
   25      C       2.8991878179     1.5753046254    -1.7728463326
   26      H       3.3216966200     2.5502724945    -1.9823471609
   27      C       1.8783427504    -0.8915096946    -1.2011507093
   28      H       1.4390989588    -1.8497087501    -0.9581569213
   29      C       3.5670046331     0.4447616218    -2.2381452633
   30      C       3.0389001613    -0.8221265409    -1.9661395297
   31      C       4.8792749967     0.6345043335    -2.9339106800
   32      H       5.1436987512     1.6919064385    -2.9053012067
   33      H       4.8224649362     0.3683673545    -3.9935955208
   34      C      -2.4761635560     0.0883212615     1.2919441340
   35      C      -3.6919946130    -0.4539297789     2.0389630327
   36      H      -3.7833920801     0.0054621076     3.0224052142
   37      H      -4.6132686625    -0.2116771927     1.5101484278
   38      H      -3.6458538252    -1.5361768575     2.1673110028
   39      C       5.9783806506    -0.1804492650    -2.2546727893
   40      H       6.9417618630     0.3087770513    -2.4022540353
   41      H       5.8102211936    -0.1982360970    -1.1742181148
   42      C       6.0651242716    -1.5718227297    -2.8034063292
   43      C       7.3337219063    -2.0287215793    -3.1691789405
   44      H       8.1904994283    -1.3936731704    -2.9856025940
   45      C       7.5301416047    -3.2573712359    -3.7683460855
   46      C       4.9547838860    -2.3899812652    -3.0256682399
   47      C       5.1611536101    -3.6209463321    -3.6560376924
   48      H       4.3190561509    -4.2684855006    -3.8604015647
   49      C       6.4142176311    -4.0623192483    -4.0300864269
   50      C       8.8420213396    -3.6830486901    -4.1257461283
   51      N       9.9036668607    -4.0235341047    -4.4126625117
   52      C       6.5546050625    -5.3283992824    -4.6707308336
   53      N       6.6607954395    -6.3510253563    -5.1885249428
   54      C       3.4995310197    -2.1452205656    -2.6016677429
   55      C       3.1132170229    -3.3198122600    -1.7055214632
   56      C       3.6463919505    -3.6746747973    -0.4826755623
   57      H       4.4503273734    -3.1022117794    -0.0367698511
   58      C       3.1252016510    -4.7843281581     0.1732907760
   59      H       3.5284267907    -5.0764153149     1.1338141714
   60      C       2.0907038603    -5.5241111771    -0.3914981778
   61      H       1.6985335485    -6.3840399296     0.1352726874
   62      C       1.5586011163    -5.1698359460    -1.6226502417
   63      H       0.7524956566    -5.7460320380    -2.0595633158
   64      C       2.0793589196    -4.0628266884    -2.2753020719
   65      C       1.7253612609    -3.4677612895    -3.5576943375
   66      C       0.7591500101    -3.8308261127    -4.4847247391
   67      H       0.1100390445    -4.6798079176    -4.3094138813
   68      C       0.6386054386    -3.0841272920    -5.6479085110
   69      H      -0.1080298514    -3.3526967485    -6.3838180687
   70      C       1.4724701547    -1.9944631432    -5.8790005125
   71      H       1.3687456552    -1.4242346371    -6.7927967348
   72      C       2.4381204868    -1.6297678715    -4.9471231985
   73      H       3.0786545011    -0.7769178364    -5.1341937671
   74      C       2.5565493562    -2.3718778289    -3.7879081653
   75      C      -2.6464895261     1.6145479110     1.1440493730
   76      H      -1.8132334925     2.0651474304     0.6045475665
   77      H      -2.7101994381     2.0887801069     2.1252121081
   78      H      -3.5620839866     1.8397769450     0.5935596892
 ----------------------------------------------------------------

   16   -1855.5544668560      3.70e-10  Convergence criterion met
 Total energy in the final basis set =    -1855.5544668560
 Final energy is   -1855.55446685601
 **  OPTIMIZATION CONVERGED  **

                    Orbital Energies (a.u.)
 --------------------------------------------------------------

 Alpha MOs
 -- Occupied --
-14.680 -14.664 -14.662 -10.520 -10.519 -10.511 -10.509 -10.505
-10.502 -10.495 -10.493 -10.492 -10.492 -10.489 -10.488 -10.480
-10.471 -10.470 -10.469 -10.468 -10.465 -10.465 -10.459 -10.459
-10.458 -10.458 -10.457 -10.457 -10.456 -10.456 -10.456 -10.456
-10.455 -10.455 -10.455 -10.453 -10.452 -10.445 -10.445 -10.443
-10.443 -10.443 -10.441 -10.438 -10.437 -10.426 -10.424  -1.092
 -1.044  -1.029  -1.026  -1.002  -0.982  -0.960  -0.959  -0.959
 -0.934  -0.925  -0.911  -0.893  -0.885  -0.878  -0.851  -0.849
 -0.847  -0.839  -0.835  -0.819  -0.816  -0.805  -0.789  -0.770
 -0.767  -0.741  -0.724  -0.722  -0.710  -0.705  -0.701  -0.686
 -0.674  -0.672  -0.670  -0.663  -0.662  -0.640  -0.618  -0.612
 -0.610  -0.603  -0.591  -0.578  -0.573  -0.565  -0.559  -0.553
 -0.538  -0.535  -0.531  -0.529  -0.522  -0.521  -0.520  -0.514
 -0.508  -0.502  -0.502  -0.499  -0.496  -0.495  -0.491  -0.490
 -0.488  -0.486  -0.482  -0.478  -0.469  -0.463  -0.457  -0.450
 -0.448  -0.445  -0.443  -0.441  -0.436  -0.436  -0.433  -0.426
 -0.426  -0.422  -0.419  -0.418  -0.418  -0.414  -0.409  -0.407
 -0.405  -0.403  -0.401  -0.399  -0.394  -0.393  -0.389  -0.377
 -0.373  -0.366  -0.342  -0.335  -0.318  -0.308  -0.303  -0.297
 -0.295  -0.289  -0.287  -0.283  -0.264  -0.231

          Ground-State Mulliken Net Atomic Charges

     Atom                 Charge (a.u.)
  ----------------------------------------
      1 N                    -0.687927
      2 C                     0.312759
      3 C                    -0.305431
      4 H                     0.256390
      5 C                    -0.257089
      6 H                     0.237784
      7 C                    -0.245176
      8 H                     0.233952
      9 C                    -0.339214
     10 H                     0.234731
     11 C                     0.151092
     12 C                     0.309812
     13 C                    -0.307996
     14 H                     0.268242
     15 C                    -0.254185
     16 H                     0.238646
     17 C                    -0.247431
     18 H                     0.232387
     19 C                    -0.336393
     20 H                     0.234419
     21 C                     0.139653
     22 C                     0.195565
     23 C                    -0.257243
     24 H                     0.252945
     25 C                    -0.321783
     26 H                     0.243026
     27 C                    -0.283021
     28 H                     0.286014
     29 C                     0.082454
     30 C                     0.190805
     31 C                    -0.547637
     32 H                     0.267827
     33 H                     0.261017
     34 C                    -0.224103
     35 C                    -0.674790
     36 H                     0.237760
     37 H                     0.237449
     38 H                     0.241151
     39 C                    -0.531450
     40 H                     0.267357
     41 H                     0.269734
     42 C                     0.080494
     43 C                    -0.323899
     44 H                     0.275945
     45 C                     0.071458
     46 C                     0.249464
     47 C                    -0.276997
     48 H                     0.295697
     49 C                     0.070847
     50 C                     0.012572
     51 N                    -0.201700
     52 C                     0.010467
     53 N                    -0.202204
     54 C                    -0.430153
     55 C                     0.058585
     56 C                    -0.280016
     57 H                     0.242145
     58 C                    -0.246751
     59 H                     0.248908
     60 C                    -0.233680
     61 H                     0.250069
     62 C                    -0.338952
     63 H                     0.239754
     64 C                     0.149697
     65 C                     0.131998
     66 C                    -0.335083
     67 H                     0.239436
     68 C                    -0.240063
     69 H                     0.249401
     70 C                    -0.244898
     71 H                     0.248976
     72 C                    -0.297533
     73 H                     0.244524
     74 C                     0.138935
     75 C                    -0.608403
     76 H                     0.235983
     77 H                     0.226028
     78 H                     0.226850
  ----------------------------------------
  Sum of atomic charges =     0.000000

                    Cartesian Multipole Moments
 -----------------------------------------------------------------
    Charge (ESU x 10^10)
                 0.0000
    Dipole Moment (Debye)
         X      -5.3879      Y       6.7889      Z       3.1800
       Tot       9.2320
    Quadrupole Moments (Debye-Ang)
        XX    -332.3177     XY      79.1521     YY    -307.2940
        XZ      49.5443     YZ     -45.3528     ZZ    -280.1184

 Total job time:  24992.88s(wall), 94287.11s(cpu)
        *  Thank you very much for using Q-Chem.  Have a nice day.  *
