 Q-Chem 5.1, Q-Chem, Inc., Pleasanton, CA (2018)
 Q-Chem 5.1.1 for Intel X86 EM64T Linux

User input:
--------------------------------------------------------------
$rem
threads 4
jobtype	opt
method PBEh-3c
basis def2-mSVP
mem_static	1024
mem_total	4000
sym_ignore	true
scf_convergence	9
solvent_method	pcm
$end

$molecule
read gsopt_2.mol
$end

$solvent
dielectric	1.0001
$end

$pcm
theory iefpcm
$end
--------------------------------------------------------------

   17   -1855.5306630819      8.60e-10  Convergence criterion met
 Total energy in the final basis set =    -1855.5306630819
   14   -1855.5305463210      8.42e-10  Convergence criterion met
 Total energy in the final basis set =    -1855.5305463210
   14   -1855.5307296123      4.90e-10  Convergence criterion met
 Total energy in the final basis set =    -1855.5307296123
   13   -1855.5305904646      6.95e-10  Convergence criterion met
 Total energy in the final basis set =    -1855.5305904646
   13   -1855.5305542192      3.48e-10  Convergence criterion met
 Total energy in the final basis set =    -1855.5305542192
   12   -1855.5305221975      4.84e-10  Convergence criterion met
 Total energy in the final basis set =    -1855.5305221975
   12   -1855.5304654021      6.56e-10  Convergence criterion met
 Total energy in the final basis set =    -1855.5304654021
   15   -1855.5292103229      4.27e-10  Convergence criterion met
   14   -1855.5303230399      8.17e-10  Convergence criterion met
 Total energy in the final basis set =    -1855.5303230399
   12   -1855.5303576103      7.03e-10  Convergence criterion met
 Total energy in the final basis set =    -1855.5303576103
   13   -1855.5302970159      3.58e-10  Convergence criterion met
 Total energy in the final basis set =    -1855.5302970159
   11   -1855.5302935179      8.16e-10  Convergence criterion met
 Total energy in the final basis set =    -1855.5302935179
   11   -1855.5302812674      8.70e-10  Convergence criterion met
 Total energy in the final basis set =    -1855.5302812674
   11   -1855.5302782502      8.06e-10  Convergence criterion met
 Total energy in the final basis set =    -1855.5302782502

             Standard Nuclear Orientation (Angstroms)
    I     Atom           X                Y                Z
 ----------------------------------------------------------------
    1      N       0.0448387266     0.1883162843     0.0006299359
    2      C       0.0778523615     0.2358924746     1.4018377300
    3      C       1.2780688317     0.4103958059     2.0891552327
    4      H       2.2063909764     0.5300950767     1.5485504126
    5      C       1.2926692073     0.4132806366     3.4728331819
    6      H       2.2323676581     0.5485478653     3.9920066522
    7      C       0.1203031528     0.2259435704     4.1833581017
    8      H       0.1264865760     0.2156538132     5.2648719783
    9      C      -1.0706926731     0.0584131523     3.4940844831
   10      H      -1.9811301393    -0.0777868678     4.0611046472
   11      C      -1.1207360015     0.0779643914     2.1074762236
   12      C      -0.9464150525    -0.5824842303    -0.6226574461
   13      C      -0.7686107743    -1.1382348523    -1.8905361535
   14      H       0.1287145656    -0.9516709594    -2.4617606423
   15      C      -1.7373915775    -1.9600210789    -2.4396001801
   16      H      -1.5644575900    -2.3916472998    -3.4168226032
   17      C      -2.8962226132    -2.2401216899    -1.7389036759
   18      H      -3.6492345625    -2.8971427597    -2.1528302386
   19      C      -3.0931001552    -1.6456273365    -0.5027670303
   20      H      -4.0171822473    -1.8433317468     0.0220921383
   21      C      -2.1517718172    -0.7952576875     0.0606746119
   22      C       1.2348356068     0.4932185672    -0.7053861739
   23      C       2.0971630724    -0.5151992220    -1.0785908305
   24      H       1.8230718951    -1.5245747556    -0.8013178005
   25      C       1.5505822011     1.8052572981    -1.0197393602
   26      H       0.8847408518     2.6093327225    -0.7356216645
   27      C       2.7234237621     2.0548790740    -1.7007532748
   28      H       2.9769029562     3.0780191477    -1.9500385044
   29      C       3.2643026350    -0.2856491606    -1.8092361063
   30      C       3.5890405460     1.0366073655    -2.1128098608
   31      C       4.7921723590     1.4427086374    -2.9111171395
   32      H       4.6850254744     2.4933297972    -3.1846772077
   33      H       5.7042510760     1.3814989957    -2.3105669987
   34      C      -2.4143955019     0.0124271117     1.3159478489
   35      C      -3.5688389403    -0.5556545561     2.1363038174
   36      H      -4.4920175472    -0.5608740910     1.5571909831
   37      H      -3.7704223790     0.0620735083     3.0110159732
   38      H      -3.3715704035    -1.5740267615     2.4734888191
   39      C       4.9626575394     0.6107275786    -4.1780141674
   40      H       5.4999437354     1.1918737167    -4.9287307914
   41      H       3.9816372810     0.3990791838    -4.6109153969
   42      C       5.7290496711    -0.6464364224    -3.9054086554
   43      C       6.9057728914    -0.8428079974    -4.6207828981
   44      H       7.1958476115    -0.1128323360    -5.3651451322
   45      C       7.7203258360    -1.9436652250    -4.4169579121
   46      C       7.3464721832    -2.8760260847    -3.4480466384
   47      C       6.1812859087    -2.6777084966    -2.7253976798
   48      H       5.9182963123    -3.4257177324    -1.9922260324
   49      C       5.3492153707    -1.5771335153    -2.9302250045
   50      C       8.9077111673    -2.1036732121    -5.1889797414
   51      N       9.8600231520    -2.2135660993    -5.8258392472
   52      C       8.1376253653    -4.0357529573    -3.1960431601
   53      N       8.7615293171    -4.9787216949    -2.9818288286
   54      C       4.0115649138    -1.5817456393    -2.1753128098
   55      C       4.1442435160    -2.3931893683    -0.8908921652
   56      C       4.8393571469    -2.0610720367     0.2531673253
   57      H       5.3866918154    -1.1290979492     0.3196700519
   58      C       4.8191716390    -2.9471557041     1.3229154302
   59      H       5.3586119705    -2.7061778334     2.2289386539
   60      C       4.1081020481    -4.1396277889     1.2433692524
   61      H       4.1011191915    -4.8147542117     2.0884619495
   62      C       3.4032728496    -4.4677743771     0.0955397332
   63      H       2.8427793659    -5.3924509474     0.0422757384
   64      C       3.4279364487    -3.5854711869    -0.9734406234
   65      C       2.7696733063    -3.6466774070    -2.2730845710
   66      C       1.9321596421    -4.6098640593    -2.8147205380
   67      H       1.6868631313    -5.5080093843    -2.2623230574
   68      C       1.4038130999    -4.4021459327    -4.0794278039
   69      H       0.7484224792    -5.1436309447    -4.5165950341
   70      C       1.7072384687    -3.2463382043    -4.7893078904
   71      H       1.2864119538    -3.0952849725    -5.7745460123
   72      C       2.5470051527    -2.2814169216    -4.2457487399
   73      H       2.7705350336    -1.3849318465    -4.8089487356
   74      C       3.0762816224    -2.4883562142    -2.9868598300
   75      C      -2.7975849475     1.4413489186     0.8793353689
   76      H      -2.0153034350     1.9040990965     0.2785267411
   77      H      -3.7091291209     1.4206947167     0.2791007641
   78      H      -2.9719768838     2.0744445315     1.7509380270
 ----------------------------------------------------------------

   10   -1855.5302865645      7.48e-10  Convergence criterion met
 Total energy in the final basis set =    -1855.5302865645
 Final energy is   -1855.53028656455
 **  OPTIMIZATION CONVERGED  **

                    Orbital Energies (a.u.)
 --------------------------------------------------------------

 Alpha MOs
 -- Occupied --
-14.680 -14.657 -14.654 -10.522 -10.520 -10.512 -10.508 -10.500
-10.500 -10.498 -10.497 -10.493 -10.491 -10.491 -10.490 -10.487
-10.480 -10.478 -10.475 -10.475 -10.473 -10.472 -10.469 -10.469
-10.468 -10.466 -10.466 -10.466 -10.465 -10.465 -10.464 -10.464
-10.464 -10.463 -10.461 -10.452 -10.451 -10.444 -10.444 -10.443
-10.442 -10.442 -10.440 -10.438 -10.436 -10.431 -10.426  -1.092
 -1.042  -1.030  -1.019  -1.003  -0.987  -0.969  -0.961  -0.958
 -0.939  -0.933  -0.911  -0.898  -0.890  -0.885  -0.858  -0.856
 -0.848  -0.846  -0.834  -0.825  -0.819  -0.808  -0.795  -0.773
 -0.771  -0.747  -0.731  -0.725  -0.714  -0.711  -0.702  -0.691
 -0.682  -0.678  -0.672  -0.671  -0.667  -0.646  -0.619  -0.613
 -0.612  -0.610  -0.599  -0.584  -0.581  -0.573  -0.566  -0.561
 -0.540  -0.539  -0.536  -0.533  -0.530  -0.526  -0.524  -0.521
 -0.516  -0.510  -0.507  -0.504  -0.502  -0.501  -0.498  -0.493
 -0.491  -0.490  -0.486  -0.484  -0.475  -0.470  -0.460  -0.451
 -0.447  -0.444  -0.439  -0.439  -0.438  -0.436  -0.435  -0.431
 -0.428  -0.426  -0.424  -0.421  -0.419  -0.417  -0.415  -0.413
 -0.410  -0.403  -0.401  -0.399  -0.397  -0.395  -0.392  -0.378
 -0.374  -0.365  -0.350  -0.337  -0.322  -0.313  -0.307  -0.303
 -0.299  -0.291  -0.287  -0.281  -0.270  -0.231

          Ground-State Mulliken Net Atomic Charges

     Atom                 Charge (a.u.)
  ----------------------------------------
      1 N                    -0.701469
      2 C                     0.307611
      3 C                    -0.279532
      4 H                     0.242838
      5 C                    -0.236277
      6 H                     0.214534
      7 C                    -0.217347
      8 H                     0.212370
      9 C                    -0.326241
     10 H                     0.212485
     11 C                     0.171990
     12 C                     0.313516
     13 C                    -0.298582
     14 H                     0.258438
     15 C                    -0.230171
     16 H                     0.215543
     17 C                    -0.220954
     18 H                     0.210532
     19 C                    -0.321523
     20 H                     0.212911
     21 C                     0.150949
     22 C                     0.217529
     23 C                    -0.281967
     24 H                     0.288814
     25 C                    -0.242150
     26 H                     0.234621
     27 C                    -0.301483
     28 H                     0.217862
     29 C                     0.245101
     30 C                     0.046622
     31 C                    -0.517182
     32 H                     0.246931
     33 H                     0.252101
     34 C                    -0.228411
     35 C                    -0.665649
     36 H                     0.227957
     37 H                     0.227901
     38 H                     0.239082
     39 C                    -0.544080
     40 H                     0.252813
     41 H                     0.258527
     42 C                     0.107348
     43 C                    -0.322059
     44 H                     0.246050
     45 C                     0.079183
     46 C                     0.093266
     47 C                    -0.298227
     48 H                     0.284387
     49 C                     0.211727
     50 C                    -0.007401
     51 N                    -0.153768
     52 C                    -0.008546
     53 N                    -0.154440
     54 C                    -0.438439
     55 C                     0.028236
     56 C                    -0.259416
     57 H                     0.223437
     58 C                    -0.228763
     59 H                     0.229036
     60 C                    -0.210281
     61 H                     0.230609
     62 C                    -0.324918
     63 H                     0.215456
     64 C                     0.161766
     65 C                     0.137962
     66 C                    -0.313608
     67 H                     0.213275
     68 C                    -0.217922
     69 H                     0.229141
     70 C                    -0.224947
     71 H                     0.228024
     72 C                    -0.282268
     73 H                     0.217250
     74 C                     0.163026
     75 C                    -0.593906
     76 H                     0.233054
     77 H                     0.220854
     78 H                     0.219260
  ----------------------------------------
  Sum of atomic charges =     0.000000

                    Cartesian Multipole Moments
 -----------------------------------------------------------------
    Charge (ESU x 10^10)
                 0.0000
    Dipole Moment (Debye)
         X      -6.2073      Y       3.8982      Z       1.6531
       Tot       7.5139
    Quadrupole Moments (Debye-Ang)
        XX    -357.4413     XY      55.9662     YY    -276.5692
        XZ      40.9613     YZ     -22.2604     ZZ    -268.3315

 Total job time:  18352.99s(wall), 68921.99s(cpu)
        *  Thank you very much for using Q-Chem.  Have a nice day.  *
