 Q-Chem 5.0, Q-Chem, Inc., Pleasanton, CA (2017)
 Q-Chem 5.0.1 for Intel X86 EM64T Linux

User input:
--------------------------------------------------------------
$rem
threads 4
jobtype	opt
method PBEh-3c
basis def2-mSVP
mem_static	1024
mem_total	4000
sym_ignore	true
scf_convergence	9
solvent_method	pcm
$end

$molecule
read gsopt.mol
$end

$solvent
dielectric	1.0001
$end

$pcm
theory iefpcm
$end
--------------------------------------------------------------

   17   -1855.5319227677      8.90E-10 Convergence criterion met
 Total energy in the final basis set = -1855.53192277
   15   -1855.5318662063      8.82E-10 Convergence criterion met
 Total energy in the final basis set = -1855.53186621
   15   -1855.5317965197      5.99E-10 Convergence criterion met
 Total energy in the final basis set = -1855.53179652
   15   -1855.5313547442      5.67E-10 Convergence criterion met
 Total energy in the final basis set = -1855.53135474
   15   -1855.5311214522      6.28E-10 Convergence criterion met
 Total energy in the final basis set = -1855.53112145
   15   -1855.5307528591      5.70E-10 Convergence criterion met
 Total energy in the final basis set = -1855.53075286
   15   -1855.5305924871      5.37E-10 Convergence criterion met
 Total energy in the final basis set = -1855.53059249
   14   -1855.5309412228      6.93E-10 Convergence criterion met
 Total energy in the final basis set = -1855.53094122
   13   -1855.5308945523      9.53E-10 Convergence criterion met
 Total energy in the final basis set = -1855.53089455
   13   -1855.5309509521      4.86E-10 Convergence criterion met
 Total energy in the final basis set = -1855.53095095
   11   -1855.5309402205      8.79E-10 Convergence criterion met
 Total energy in the final basis set = -1855.53094022
   11   -1855.5309416561      6.81E-10 Convergence criterion met
 Total energy in the final basis set = -1855.53094166
   10   -1855.5309365273      6.75E-10 Convergence criterion met
 Total energy in the final basis set = -1855.53093653

             Standard Nuclear Orientation (Angstroms)
    I     Atom           X                Y                Z
 ----------------------------------------------------------------
    1      N       0.0715295672     0.0986363108     0.1128976350
    2      C       0.1600863752     0.2960058972     1.4958201411
    3      C       1.3787286067     0.6031629465     2.0997559789
    4      H       2.2733823407     0.7078364167     1.5022297911
    5      C       1.4547122185     0.7657475130     3.4715630665
    6      H       2.4076471201     1.0057871332     3.9246038077
    7      C       0.3261270846     0.6063505710     4.2560730573
    8      H       0.3800614597     0.7219819863     5.3300394274
    9      C      -0.8835390132     0.3064685917     3.6491652373
   10      H      -1.7608249169     0.1967312142     4.2713665586
   11      C      -0.9968931788     0.1655146248     2.2731448675
   12      C      -0.9348365462    -0.7315661564    -0.3982513159
   13      C      -0.8156236515    -1.3583127145    -1.6404277981
   14      H       0.0360398032    -1.1806112283    -2.2806260082
   15      C      -1.7902470226    -2.2356530096    -2.0813376910
   16      H      -1.6635152521    -2.7138160788    -3.0438989992
   17      C      -2.8965867775    -2.5042299281    -1.2967812843
   18      H      -3.6528935693    -3.2047336014    -1.6244364911
   19      C      -3.0408867634    -1.8364008438    -0.0911071815
   20      H      -3.9301321803    -2.0224722869     0.4948276948
   21      C      -2.0956338518    -0.9264869628     0.3628883498
   22      C       1.2150151412     0.3525114767    -0.6845939571
   23      C       2.0676627459    -0.6858493091    -1.0183077889
   24      H       1.8349382887    -1.6661795613    -0.6252946605
   25      C       1.4653862804     1.6239038548    -1.1660293364
   26      H       0.8024958281     2.4413196933    -0.9150168286
   27      C       2.5801113153     1.8236912293    -1.9596988369
   28      H       2.8051353632     2.8232379732    -2.3112438396
   29      C       3.1372973189    -0.5168750989    -1.8930272493
   30      C       3.4138800397     0.7777398948    -2.3446901165
   31      C       4.6276038077     1.1004102748    -3.1616303810
   32      H       4.7192585850     2.1845276484    -3.2405050915
   33      H       4.5417134140     0.7333747652    -4.1889960239
   34      C      -2.3242747483    -0.0279838827     1.5624021432
   35      C      -3.4065617435    -0.5696420488     2.4919057456
   36      H      -4.3585350576    -0.6595232453     1.9694687455
   37      H      -3.5874328752     0.1118948341     3.3223775148
   38      H      -3.1456659308    -1.5468036391     2.9000947506
   39      C       5.8889904708     0.5267917284    -2.5179008328
   40      H       6.7507026655     1.1410468305    -2.7828722979
   41      H       5.7995211580     0.5823822593    -1.4295944966
   42      C       6.1546892754    -0.8794517696    -2.9651680926
   43      C       7.4400700327    -1.1671534595    -3.4261612793
   44      H       8.1958146867    -0.3935747483    -3.3864557891
   45      C       7.7817148007    -2.4010399695    -3.9463172477
   46      C       6.7936317197    -3.3888289654    -4.0261204149
   47      C       5.5232028007    -3.1105243407    -3.5605437848
   48      H       4.7821610134    -3.8958003953    -3.6260384564
   49      C       5.1756695731    -1.8743023131    -3.0103663170
   50      C       9.1099016261    -2.6408688153    -4.4043962385
   51      N      10.1875454644    -2.8152138524    -4.7688908533
   52      C       7.0746505676    -4.6754921669    -4.5741299814
   53      N       7.2818259599    -5.7190444563    -5.0127852615
   54      C       3.7394657300    -1.8069671808    -2.4731159680
   55      C       2.7483247122    -2.2335802651    -3.5583683022
   56      C       2.4425092223    -1.5922430046    -4.7426074135
   57      H       2.9392933314    -0.6736637607    -5.0265445278
   58      C       1.4763305884    -2.1447211132    -5.5741338582
   59      H       1.2293392108    -1.6560763787    -6.5070851656
   60      C       0.8245332183    -3.3208770127    -5.2204349974
   61      H       0.0767166196    -3.7382239439    -5.8817982223
   62      C       1.1283494841    -3.9645232444    -4.0304629613
   63      H       0.6208218849    -4.8813682031    -3.7585303610
   64      C       2.0949798707    -3.4135928062    -3.2021015542
   65      C       2.6252760801    -3.8733375332    -1.9255598960
   66      C       2.3285300915    -4.9990806460    -1.1727318390
   67      H       1.5796941251    -5.7085238220    -1.5016486501
   68      C       3.0129195594    -5.2019552029     0.0156162350
   69      H       2.7957606569    -6.0743192439     0.6173757730
   70      C       3.9793689482    -4.2975674137     0.4416229073
   71      H       4.5054650892    -4.4745057780     1.3700408347
   72      C       4.2753289433    -3.1697627924    -0.3132674198
   73      H       5.0283004720    -2.4673955768     0.0219754009
   74      C       3.5887160655    -2.9644846853    -1.4920642290
   75      C      -2.7947683879     1.3406631708     1.0271087079
   76      H      -2.0663441224     1.7796930382     0.3458492489
   77      H      -3.7344214466     1.2300853880     0.4824704245
   78      H      -2.9522199933     2.0412551105     1.8491090386
 ----------------------------------------------------------------

   10   -1855.5309377521      4.46E-10 Convergence criterion met
 Total energy in the final basis set = -1855.53093775
 Final energy is   -1855.53093775212
 **  OPTIMIZATION CONVERGED  **

                    Orbital Energies (a.u.)
 --------------------------------------------------------------

 Alpha MOs
 -- Occupied --
-14.681 -14.656 -14.654 -10.521 -10.519 -10.512 -10.506 -10.500
-10.500 -10.498 -10.497 -10.493 -10.492 -10.492 -10.491 -10.487
-10.479 -10.478 -10.475 -10.473 -10.473 -10.472 -10.470 -10.469
-10.468 -10.467 -10.466 -10.466 -10.466 -10.466 -10.465 -10.464
-10.464 -10.463 -10.462 -10.452 -10.451 -10.445 -10.445 -10.443
-10.443 -10.442 -10.440 -10.438 -10.436 -10.431 -10.426  -1.093
 -1.042  -1.030  -1.019  -1.003  -0.988  -0.969  -0.961  -0.958
 -0.938  -0.933  -0.911  -0.898  -0.891  -0.885  -0.859  -0.856
 -0.849  -0.846  -0.835  -0.825  -0.819  -0.809  -0.795  -0.773
 -0.772  -0.747  -0.731  -0.725  -0.715  -0.711  -0.703  -0.691
 -0.682  -0.678  -0.672  -0.672  -0.666  -0.645  -0.619  -0.614
 -0.613  -0.612  -0.596  -0.586  -0.581  -0.573  -0.568  -0.561
 -0.541  -0.539  -0.538  -0.533  -0.529  -0.527  -0.522  -0.521
 -0.517  -0.510  -0.505  -0.504  -0.502  -0.501  -0.498  -0.493
 -0.491  -0.490  -0.487  -0.485  -0.475  -0.470  -0.461  -0.453
 -0.448  -0.445  -0.441  -0.438  -0.437  -0.435  -0.435  -0.429
 -0.427  -0.424  -0.424  -0.422  -0.421  -0.417  -0.414  -0.413
 -0.412  -0.403  -0.400  -0.399  -0.397  -0.395  -0.393  -0.378
 -0.374  -0.366  -0.350  -0.338  -0.321  -0.313  -0.307  -0.303
 -0.299  -0.291  -0.287  -0.282  -0.271  -0.230

          Ground-State Mulliken Net Atomic Charges

     Atom                 Charge (a.u.)
  ----------------------------------------
      1 N                    -0.700082
      2 C                     0.314758
      3 C                    -0.287815
      4 H                     0.240221
      5 C                    -0.235493
      6 H                     0.215081
      7 C                    -0.218671
      8 H                     0.212794
      9 C                    -0.323916
     10 H                     0.212301
     11 C                     0.170865
     12 C                     0.314757
     13 C                    -0.300005
     14 H                     0.264584
     15 C                    -0.234445
     16 H                     0.218930
     17 C                    -0.220836
     18 H                     0.210019
     19 C                    -0.320841
     20 H                     0.212726
     21 C                     0.152098
     22 C                     0.222301
     23 C                    -0.302913
     24 H                     0.285569
     25 C                    -0.237436
     26 H                     0.235446
     27 C                    -0.303391
     28 H                     0.218182
     29 C                     0.184818
     30 C                     0.093175
     31 C                    -0.535761
     32 H                     0.251579
     33 H                     0.248485
     34 C                    -0.232685
     35 C                    -0.663124
     36 H                     0.227541
     37 H                     0.227304
     38 H                     0.239492
     39 C                    -0.523607
     40 H                     0.248603
     41 H                     0.260215
     42 C                     0.081137
     43 C                    -0.322023
     44 H                     0.246989
     45 C                     0.078980
     46 C                     0.077196
     47 C                    -0.273093
     48 H                     0.280770
     49 C                     0.247932
     50 C                    -0.007214
     51 N                    -0.154461
     52 C                    -0.008627
     53 N                    -0.154896
     54 C                    -0.432992
     55 C                     0.143783
     56 C                    -0.275137
     57 H                     0.219122
     58 C                    -0.221255
     59 H                     0.228816
     60 C                    -0.223863
     61 H                     0.230119
     62 C                    -0.318132
     63 H                     0.215959
     64 C                     0.132124
     65 C                     0.157535
     66 C                    -0.322041
     67 H                     0.214564
     68 C                    -0.212746
     69 H                     0.230537
     70 C                    -0.226866
     71 H                     0.229767
     72 C                    -0.261531
     73 H                     0.220758
     74 C                     0.057799
     75 C                    -0.593046
     76 H                     0.232563
     77 H                     0.221319
     78 H                     0.219330
  ----------------------------------------
  Sum of atomic charges =     0.000000

                    Cartesian Multipole Moments
 -----------------------------------------------------------------
    Charge (ESU x 10^10)
                 0.0000
    Dipole Moment (Debye)
         X      -5.3909      Y       4.7348      Z       2.6451
       Tot       7.6470
    Quadrupole Moments (Debye-Ang)
        XX    -338.5640     XY      60.1404     YY    -285.1232
        XZ      46.1340     YZ     -31.9012     ZZ    -279.7489

 Total job time:  21308.39s(wall), 49402.57s(cpu)
        *  Thank you very much for using Q-Chem.  Have a nice day.  *
