 Q-Chem 5.1, Q-Chem, Inc., Pleasanton, CA (2018)
 Q-Chem 5.1.1 for Intel X86 EM64T Linux

User input:
--------------------------------------------------------------
$rem
threads 4
jobtype	opt
method PBEh-3c
basis def2-mSVP
mem_static	1024
mem_total	4000
sym_ignore	true
scf_convergence	9
solvent_method	pcm
$end

$molecule
read gsopt_2.mol
$end

$solvent
dielectric	8.93
$end

$pcm
theory iefpcm
$end
--------------------------------------------------------------

   17   -1855.5597277514      5.12e-10  Convergence criterion met
 Total energy in the final basis set =    -1855.5597277514
   16   -1855.5597839821      5.35e-10  Convergence criterion met
 Total energy in the final basis set =    -1855.5597839821
   16   -1855.5602099648      4.69e-10  Convergence criterion met
 Total energy in the final basis set =    -1855.5602099648
   16   -1855.5600874721      4.49e-10  Convergence criterion met
 Total energy in the final basis set =    -1855.5600874721
   16   -1855.5601109114      4.45e-10  Convergence criterion met
 Total energy in the final basis set =    -1855.5601109114
   16   -1855.5601280172      4.46e-10  Convergence criterion met
 Total energy in the final basis set =    -1855.5601280172
   16   -1855.5601263788      4.56e-10  Convergence criterion met
 Total energy in the final basis set =    -1855.5601263788
   16   -1855.5601337632      4.59e-10  Convergence criterion met
 Total energy in the final basis set =    -1855.5601337632
   16   -1855.5601436133      4.68e-10  Convergence criterion met
 Total energy in the final basis set =    -1855.5601436133

             Standard Nuclear Orientation (Angstroms)
    I     Atom           X                Y                Z
 ----------------------------------------------------------------
    1      N       0.0154699383     0.1888109541    -0.0331295347
    2      C       0.0928410512     0.1157699440     1.3630260270
    3      C       1.3204548262     0.1801094488     2.0243419766
    4      H       2.2382473506     0.3125955733     1.4683968782
    5      C       1.3769269764     0.0547383118     3.4025275759
    6      H       2.3378795775     0.1022978318     3.8983331621
    7      C       0.2180723334    -0.1476393886     4.1337307323
    8      H       0.2560041152    -0.2585330469     5.2092491975
    9      C      -1.0008359624    -0.1972128244     3.4720994483
   10      H      -1.9002790167    -0.3401581617     4.0548441539
   11      C      -1.0912090182    -0.0486688827     2.0943114076
   12      C      -1.0366899750    -0.4634996404    -0.6842477792
   13      C      -0.9216119778    -0.9141122442    -2.0012470298
   14      H      -0.0222796382    -0.7350787923    -2.5723910641
   15      C      -1.9568010349    -1.6163681963    -2.5963143927
   16      H      -1.8395967635    -1.9641495603    -3.6147602708
   17      C      -3.1174890132    -1.8843385623    -1.8905116975
   18      H      -3.9232887260    -2.4471617234    -2.3428303632
   19      C      -3.2450631635    -1.4000760424    -0.5967145382
   20      H      -4.1678247019    -1.5869464959    -0.0650737995
   21      C      -2.2354969988    -0.6675936104     0.0147155578
   22      C       1.1968470151     0.4902702219    -0.7608676860
   23      C       2.0447002963    -0.5244578303    -1.1515174005
   24      H       1.7633514551    -1.5344235438    -0.8808424644
   25      C       1.5107422807     1.8022767635    -1.0759671560
   26      H       0.8538132674     2.6100523340    -0.7801744650
   27      C       2.6720043441     2.0481652051    -1.7798892567
   28      H       2.9213487667     3.0694477497    -2.0405015195
   29      C       3.2172735696    -0.2939394269    -1.8741136397
   30      C       3.5352665388     1.0273655586    -2.1925328525
   31      C       4.7269745024     1.4309870476    -3.0084965506
   32      H       4.5959856839     2.4680498478    -3.3187865787
   33      H       5.6402470120     1.4106051099    -2.4070003857
   34      C      -2.4129670953     0.0275289651     1.3504381027
   35      C      -3.5698919204    -0.5575013754     2.1559234688
   36      H      -4.5104954047    -0.4501829958     1.6162090307
   37      H      -3.6996829393    -0.0239809738     3.0969942128
   38      H      -3.4230768399    -1.6152868700     2.3787370759
   39      C       4.9107951132     0.5609852715    -4.2480210275
   40      H       5.4307741777     1.1288374349    -5.0194834783
   41      H       3.9357692392     0.3042163893    -4.6698610943
   42      C       5.7083565000    -0.6643326615    -3.9314394997
   43      C       6.8944278215    -0.8548008404    -4.6369356716
   44      H       7.1689009114    -0.1426156095    -5.4041379885
   45      C       7.7293567639    -1.9292660135    -4.3881777188
   46      C       7.3725138682    -2.8370628896    -3.3876298907
   47      C       6.2007599152    -2.6447088148    -2.6767894262
   48      H       5.9519478603    -3.3734165684    -1.9193171807
   49      C       5.3452819992    -1.5702910321    -2.9275562902
   50      C       8.9253123864    -2.0999743649    -5.1435679847
   51      N       9.8888953139    -2.2367575861    -5.7585830662
   52      C       8.1944322279    -3.9655103338    -3.0987158764
   53      N       8.8546741925    -4.8795871718    -2.8665526423
   54      C       4.0026645502    -1.5821748396    -2.1821529833
   55      C       4.1532200269    -2.3227382327    -0.8569167325
   56      C       4.8193843313    -1.9020874624     0.2756102989
   57      H       5.3297244620    -0.9469443998     0.2989182690
   58      C       4.8158929271    -2.7307731871     1.3918153129
   59      H       5.3310176468    -2.4202851033     2.2912617175
   60      C       4.1524399044    -3.9544607348     1.3667438529
   61      H       4.1583414502    -4.5831708993     2.2473685129
   62      C       3.4786212398    -4.3725904568     0.2277948000
   63      H       2.9562045072    -5.3209875471     0.2143012583
   64      C       3.4848233212    -3.5454748560    -0.8858637951
   65      C       2.8507938200    -3.7003630621    -2.1907654406
   66      C       2.0755178755    -4.7324788145    -2.7003796447
   67      H       1.8663520385    -5.6153148798    -2.1089266290
   68      C       1.5661564107    -4.6130198560    -3.9858653202
   69      H       0.9591230173    -5.4078562161    -4.3991469856
   70      C       1.8268802952    -3.4779540401    -4.7466908144
   71      H       1.4201616253    -3.3964944848    -5.7462102857
   72      C       2.6057301795    -2.4449115159    -4.2360244355
   73      H       2.7975089371    -1.5679706453    -4.8411998139
   74      C       3.1152295349    -2.5641808020    -2.9567702749
   75      C      -2.7311511496     1.5104555132     1.0666248915
   76      H      -1.9468904408     1.9912909848     0.4815553680
   77      H      -3.6647379930     1.5931019446     0.5068460423
   78      H      -2.8414092524     2.0615109836     2.0022539026
 ----------------------------------------------------------------

   16   -1855.5601502114      5.03e-10  Convergence criterion met
 Total energy in the final basis set =    -1855.5601502114
 Final energy is   -1855.56015021139
 **  OPTIMIZATION CONVERGED  **

                    Orbital Energies (a.u.)
 --------------------------------------------------------------

 Alpha MOs
 -- Occupied --
-14.681 -14.667 -14.665 -10.521 -10.520 -10.514 -10.513 -10.504
-10.503 -10.494 -10.493 -10.493 -10.491 -10.487 -10.487 -10.479
-10.471 -10.471 -10.468 -10.467 -10.465 -10.465 -10.459 -10.457
-10.457 -10.457 -10.456 -10.456 -10.455 -10.455 -10.455 -10.455
-10.455 -10.454 -10.454 -10.453 -10.452 -10.445 -10.445 -10.445
-10.445 -10.443 -10.443 -10.439 -10.438 -10.425 -10.424  -1.092
 -1.046  -1.032  -1.026  -1.003  -0.981  -0.960  -0.960  -0.959
 -0.934  -0.924  -0.911  -0.892  -0.883  -0.878  -0.851  -0.849
 -0.847  -0.839  -0.836  -0.820  -0.816  -0.805  -0.789  -0.770
 -0.767  -0.740  -0.723  -0.723  -0.710  -0.705  -0.701  -0.685
 -0.673  -0.672  -0.670  -0.663  -0.662  -0.640  -0.619  -0.612
 -0.610  -0.601  -0.593  -0.577  -0.571  -0.565  -0.558  -0.552
 -0.539  -0.535  -0.529  -0.529  -0.521  -0.520  -0.520  -0.515
 -0.506  -0.503  -0.501  -0.500  -0.496  -0.494  -0.492  -0.491
 -0.489  -0.485  -0.481  -0.477  -0.469  -0.461  -0.458  -0.453
 -0.449  -0.445  -0.441  -0.440  -0.437  -0.436  -0.432  -0.428
 -0.425  -0.423  -0.421  -0.419  -0.418  -0.413  -0.410  -0.409
 -0.405  -0.403  -0.402  -0.398  -0.395  -0.393  -0.387  -0.378
 -0.373  -0.365  -0.342  -0.333  -0.319  -0.309  -0.301  -0.298
 -0.296  -0.291  -0.287  -0.285  -0.263  -0.233

          Ground-State Mulliken Net Atomic Charges

     Atom                 Charge (a.u.)
  ----------------------------------------
      1 N                    -0.693210
      2 C                     0.305690
      3 C                    -0.305513
      4 H                     0.262937
      5 C                    -0.263509
      6 H                     0.244289
      7 C                    -0.250885
      8 H                     0.239756
      9 C                    -0.345256
     10 H                     0.241234
     11 C                     0.148550
     12 C                     0.309555
     13 C                    -0.314732
     14 H                     0.267721
     15 C                    -0.259942
     16 H                     0.243986
     17 C                    -0.253274
     18 H                     0.239225
     19 C                    -0.341599
     20 H                     0.241826
     21 C                     0.133604
     22 C                     0.197597
     23 C                    -0.275214
     24 H                     0.287508
     25 C                    -0.261976
     26 H                     0.257032
     27 C                    -0.324817
     28 H                     0.249690
     29 C                     0.239620
     30 C                     0.045561
     31 C                    -0.527312
     32 H                     0.267911
     33 H                     0.263132
     34 C                    -0.218057
     35 C                    -0.678691
     36 H                     0.240763
     37 H                     0.241374
     38 H                     0.240511
     39 C                    -0.556787
     40 H                     0.277415
     41 H                     0.275070
     42 C                     0.104124
     43 C                    -0.324257
     44 H                     0.282907
     45 C                     0.070341
     46 C                     0.085385
     47 C                    -0.298999
     48 H                     0.299118
     49 C                     0.214909
     50 C                     0.017977
     51 N                    -0.211729
     52 C                     0.014920
     53 N                    -0.212578
     54 C                    -0.428649
     55 C                     0.027290
     56 C                    -0.277906
     57 H                     0.250200
     58 C                    -0.255766
     59 H                     0.253870
     60 C                    -0.238048
     61 H                     0.254939
     62 C                    -0.346525
     63 H                     0.247088
     64 C                     0.154231
     65 C                     0.125278
     66 C                    -0.338834
     67 H                     0.245931
     68 C                    -0.243625
     69 H                     0.255008
     70 C                    -0.247360
     71 H                     0.254270
     72 C                    -0.306798
     73 H                     0.251273
     74 C                     0.151072
     75 C                    -0.613243
     76 H                     0.236858
     77 H                     0.228400
     78 H                     0.228145
  ----------------------------------------
  Sum of atomic charges =     0.000000

                    Cartesian Multipole Moments
 -----------------------------------------------------------------
    Charge (ESU x 10^10)
                 0.0000
    Dipole Moment (Debye)
         X      -7.5681      Y       5.5229      Z       1.3158
       Tot       9.4609
    Quadrupole Moments (Debye-Ang)
        XX    -378.3451     XY      70.7485     YY    -279.3625
        XZ      45.3170     YZ     -28.2354     ZZ    -261.8562

 Total job time:  20763.35s(wall), 79036.73s(cpu)
        *  Thank you very much for using Q-Chem.  Have a nice day.  *
