 Q-Chem 5.0, Q-Chem, Inc., Pleasanton, CA (2017)
 Q-Chem 5.0.1 for Intel X86 EM64T Linux

User input:
--------------------------------------------------------------
$rem
threads 4
jobtype	opt
method PBEh-3c
basis def2-mSVP
mem_static	1024
mem_total	4000
sym_ignore	true
scf_convergence	9
solvent_method	pcm
$end

$molecule
read gsopt.mol
$end

$solvent
dielectric	2.03
$end

$pcm
theory iefpcm
$end
--------------------------------------------------------------

   17   -1855.5447256013      5.84E-10 Convergence criterion met
 Total energy in the final basis set = -1855.54472560
   15   -1855.5446767401      9.72E-10 Convergence criterion met
 Total energy in the final basis set = -1855.54467674
   15   -1855.5445991158      9.19E-10 Convergence criterion met
 Total energy in the final basis set = -1855.54459912
   15   -1855.5442078126      8.40E-10 Convergence criterion met
 Total energy in the final basis set = -1855.54420781
   15   -1855.5439965631      8.54E-10 Convergence criterion met
 Total energy in the final basis set = -1855.54399656
   15   -1855.5436866568      8.45E-10 Convergence criterion met
 Total energy in the final basis set = -1855.54368666
   15   -1855.5434317602      8.18E-10 Convergence criterion met
 Total energy in the final basis set = -1855.54343176
   15   -1855.5437977055      7.68E-10 Convergence criterion met
 Total energy in the final basis set = -1855.54379771
   15   -1855.5437861309      6.78E-10 Convergence criterion met
 Total energy in the final basis set = -1855.54378613
   15   -1855.5438623603      6.54E-10 Convergence criterion met
 Total energy in the final basis set = -1855.54386236
   15   -1855.5438553921      6.48E-10 Convergence criterion met
 Total energy in the final basis set = -1855.54385539

             Standard Nuclear Orientation (Angstroms)
    I     Atom           X                Y                Z
 ----------------------------------------------------------------
    1      N       0.0694702879     0.0904598352     0.1131130545
    2      C       0.1580087095     0.2822152916     1.4958148996
    3      C       1.3792634216     0.5767398914     2.1022135804
    4      H       2.2754701639     0.6767121671     1.5059832979
    5      C       1.4559002468     0.7326309173     3.4752439521
    6      H       2.4108773457     0.9624232413     3.9296777497
    7      C       0.3250107089     0.5792210844     4.2588981675
    8      H       0.3793604732     0.6893369682     5.3336081641
    9      C      -0.8874623067     0.2929599232     3.6496352799
   10      H      -1.7664635576     0.1889726319     4.2706896067
   11      C      -1.0009925826     0.1594345794     2.2724239811
   12      C      -0.9462704574    -0.7234723621    -0.4030011355
   13      C      -0.8313749367    -1.3470522294    -1.6477791741
   14      H       0.0266696348    -1.1804679687    -2.2826460095
   15      C      -1.8173008305    -2.2084551596    -2.0964066385
   16      H      -1.6945867144    -2.6848663396    -3.0605061158
   17      C      -2.9306741905    -2.4649559152    -1.3165772170
   18      H      -3.6960155311    -3.1529085159    -1.6503280882
   19      C      -3.0687008347    -1.8019716794    -0.1068323530
   20      H      -3.9624482240    -1.9782403273     0.4754650909
   21      C      -2.1115383853    -0.9077477582     0.3548536216
   22      C       1.2127792540     0.3456003962    -0.6861665387
   23      C       2.0653370706    -0.6923225249    -1.0214028593
   24      H       1.8334993475    -1.6733954309    -0.6292684380
   25      C       1.4605040009     1.6180784920    -1.1666009154
   26      H       0.7974471484     2.4355758670    -0.9153496569
   27      C       2.5751083932     1.8198528151    -1.9605352427
   28      H       2.7989061951     2.8199395503    -2.3113428391
   29      C       3.1358126903    -0.5204275432    -1.8949914704
   30      C       3.4111025513     0.7751346933    -2.3454947244
   31      C       4.6245856257     1.1007702302    -3.1613682738
   32      H       4.7153598581     2.1848441125    -3.2382561385
   33      H       4.5383372260     0.7352295546    -4.1891413733
   34      C      -2.3308238738    -0.0152643600     1.5608600427
   35      C      -3.4184823865    -0.5514107177     2.4874776483
   36      H      -4.3714181333    -0.6279733956     1.9647533660
   37      H      -3.5907205656     0.1269696924     3.3223392331
   38      H      -3.1678652305    -1.5339883463     2.8892562763
   39      C       5.8865338849     0.5283947968    -2.5173906832
   40      H       6.7468660625     1.1452142207    -2.7795085552
   41      H       5.7970954316     0.5781371093    -1.4288338991
   42      C       6.1544536402    -0.8755032060    -2.9687474318
   43      C       7.4404346864    -1.1582365993    -3.4334744930
   44      H       8.1934287078    -0.3819576049    -3.3939428674
   45      C       7.7819761395    -2.3907474906    -3.9557262346
   46      C       6.7962190206    -3.3817514281    -4.0331674469
   47      C       5.5262635876    -3.1089829392    -3.5642796281
   48      H       4.7877961760    -3.8968608571    -3.6284268253
   49      C       5.1777999917    -1.8729087096    -3.0128306974
   50      C       9.1080716375    -2.6304685563    -4.4193615777
   51      N      10.1822437068    -2.8126138100    -4.7907392925
   52      C       7.0826325520    -4.6658427701    -4.5837526479
   53      N       7.3010524668    -5.7057435041    -5.0260533995
   54      C       3.7428677804    -1.8096328709    -2.4718450194
   55      C       2.7517620870    -2.2461818005    -3.5537294103
   56      C       2.4388742693    -1.6106781348    -4.7396607554
   57      H       2.9278364435    -0.6894029171    -5.0287970443
   58      C       1.4745955070    -2.1739410747    -5.5671620280
   59      H       1.2214905623    -1.6901169145    -6.5011599927
   60      C       0.8323934146    -3.3543229144    -5.2078741849
   61      H       0.0858479524    -3.7794142406    -5.8659469054
   62      C       1.1437360462    -3.9919895012    -4.0160843759
   63      H       0.6441764013    -4.9119148892    -3.7393609119
   64      C       2.1081058923    -3.4300734710    -3.1920242748
   65      C       2.6444996949    -3.8818835753    -1.9151929847
   66      C       2.3563830635    -5.0078055894    -1.1587497713
   67      H       1.6120650951    -5.7234490803    -1.4849007853
   68      C       3.0440501676    -5.2017194140     0.0298000694
   69      H       2.8338892249    -6.0737061596     0.6348896082
   70      C       4.0047142771    -4.2885642491     0.4519281912
   71      H       4.5329667930    -4.4585057300     1.3806220634
   72      C       4.2919285074    -3.1606557719    -0.3070839316
   73      H       5.0398142435    -2.4515039885     0.0257816424
   74      C       3.6020547522    -2.9646684492    -1.4859918651
   75      C      -2.7864829029     1.3624260771     1.0356910526
   76      H      -2.0540357368     1.7996856904     0.3572684993
   77      H      -3.7280950805     1.2654944478     0.4916476723
   78      H      -2.9368863665     2.0577624287     1.8635548063
 ----------------------------------------------------------------

   15   -1855.5438548783      6.47E-10 Convergence criterion met
 Total energy in the final basis set = -1855.54385488
 Final energy is   -1855.54385487835
 **  OPTIMIZATION CONVERGED  **

                    Orbital Energies (a.u.)
 --------------------------------------------------------------

 Alpha MOs
 -- Occupied --
-14.680 -14.661 -14.658 -10.520 -10.519 -10.507 -10.506 -10.504
-10.504 -10.497 -10.494 -10.491 -10.491 -10.490 -10.490 -10.482
-10.473 -10.473 -10.470 -10.468 -10.468 -10.467 -10.465 -10.462
-10.461 -10.461 -10.461 -10.460 -10.460 -10.460 -10.459 -10.459
-10.458 -10.458 -10.457 -10.452 -10.451 -10.444 -10.444 -10.442
-10.442 -10.441 -10.439 -10.437 -10.436 -10.427 -10.424  -1.091
 -1.042  -1.028  -1.024  -1.002  -0.984  -0.963  -0.959  -0.958
 -0.935  -0.928  -0.910  -0.894  -0.887  -0.881  -0.854  -0.851
 -0.848  -0.841  -0.834  -0.819  -0.818  -0.806  -0.791  -0.771
 -0.769  -0.743  -0.726  -0.723  -0.712  -0.707  -0.701  -0.687
 -0.677  -0.673  -0.670  -0.666  -0.663  -0.642  -0.617  -0.612
 -0.611  -0.606  -0.593  -0.581  -0.576  -0.568  -0.562  -0.555
 -0.539  -0.536  -0.533  -0.531  -0.524  -0.523  -0.520  -0.516
 -0.512  -0.505  -0.503  -0.500  -0.497  -0.497  -0.494  -0.490
 -0.489  -0.488  -0.483  -0.481  -0.471  -0.465  -0.458  -0.448
 -0.446  -0.444  -0.442  -0.441  -0.438  -0.436  -0.432  -0.427
 -0.426  -0.423  -0.421  -0.419  -0.418  -0.415  -0.410  -0.409
 -0.408  -0.402  -0.401  -0.400  -0.395  -0.394  -0.391  -0.377
 -0.373  -0.365  -0.345  -0.336  -0.319  -0.309  -0.303  -0.299
 -0.296  -0.289  -0.287  -0.282  -0.266  -0.229

          Ground-State Mulliken Net Atomic Charges

     Atom                 Charge (a.u.)
  ----------------------------------------
      1 N                    -0.698344
      2 C                     0.314358
      3 C                    -0.297914
      4 H                     0.249041
      5 C                    -0.248004
      6 H                     0.227617
      7 C                    -0.233489
      8 H                     0.224379
      9 C                    -0.332818
     10 H                     0.224263
     11 C                     0.162248
     12 C                     0.313589
     13 C                    -0.306830
     14 H                     0.270176
     15 C                    -0.245626
     16 H                     0.229405
     17 C                    -0.235459
     18 H                     0.221933
     19 C                    -0.330000
     20 H                     0.224221
     21 C                     0.145288
     22 C                     0.218884
     23 C                    -0.305772
     24 H                     0.288607
     25 C                    -0.246323
     26 H                     0.246029
     27 C                    -0.313766
     28 H                     0.231999
     29 C                     0.184087
     30 C                     0.091371
     31 C                    -0.541390
     32 H                     0.260734
     33 H                     0.255313
     34 C                    -0.227917
     35 C                    -0.669716
     36 H                     0.232722
     37 H                     0.232593
     38 H                     0.241178
     39 C                    -0.528846
     40 H                     0.258956
     41 H                     0.265769
     42 C                     0.080445
     43 C                    -0.324113
     44 H                     0.263144
     45 C                     0.074827
     46 C                     0.073245
     47 C                    -0.274503
     48 H                     0.289590
     49 C                     0.249675
     50 C                     0.003890
     51 N                    -0.181676
     52 C                     0.002404
     53 N                    -0.182134
     54 C                    -0.430514
     55 C                     0.139802
     56 C                    -0.285504
     57 H                     0.232571
     58 C                    -0.233143
     59 H                     0.240241
     60 C                    -0.233897
     61 H                     0.241280
     62 C                    -0.326936
     63 H                     0.229343
     64 C                     0.129371
     65 C                     0.154730
     66 C                    -0.331742
     67 H                     0.228430
     68 C                    -0.224153
     69 H                     0.241682
     70 C                    -0.238227
     71 H                     0.240743
     72 C                    -0.271146
     73 H                     0.232390
     74 C                     0.057121
     75 C                    -0.601632
     76 H                     0.234487
     77 H                     0.224567
     78 H                     0.222797
  ----------------------------------------
  Sum of atomic charges =     0.000000

                    Cartesian Multipole Moments
 -----------------------------------------------------------------
    Charge (ESU x 10^10)
                 0.0000
    Dipole Moment (Debye)
         X      -5.8583      Y       5.5099      Z       2.9125
       Tot       8.5534
    Quadrupole Moments (Debye-Ang)
        XX    -345.0567     XY      67.2985     YY    -287.3212
        XZ      51.0017     YZ     -35.9556     ZZ    -281.3364

 Total job time:  21841.62s(wall), 50586.15s(cpu)
        *  Thank you very much for using Q-Chem.  Have a nice day.  *
