 Q-Chem 5.1, Q-Chem, Inc., Pleasanton, CA (2018)
 Q-Chem 5.1.1 for Intel X86 EM64T Linux

User input:
--------------------------------------------------------------
$rem
threads 4
jobtype	opt
method PBEh-3c
basis def2-mSVP
mem_static	1024
mem_total	4000
sym_ignore	true
scf_convergence	9
solvent_method	pcm
$end

$molecule
read gsopt_2.mol
$end

$solvent
dielectric	2.03
$end

$pcm
theory iefpcm
$end
--------------------------------------------------------------

   17   -1855.5435214225      5.49e-10  Convergence criterion met
 Total energy in the final basis set =    -1855.5435214225
   15   -1855.5434368188      8.34e-10  Convergence criterion met
 Total energy in the final basis set =    -1855.5434368188
   15   -1855.5437219859      7.19e-10  Convergence criterion met
 Total energy in the final basis set =    -1855.5437219859
   15   -1855.5435896434      6.50e-10  Convergence criterion met
 Total energy in the final basis set =    -1855.5435896434
   15   -1855.5436055093      6.30e-10  Convergence criterion met
 Total energy in the final basis set =    -1855.5436055093
   15   -1855.5436077000      6.31e-10  Convergence criterion met
 Total energy in the final basis set =    -1855.5436077000
   15   -1855.5436051429      6.42e-10  Convergence criterion met
 Total energy in the final basis set =    -1855.5436051429
   15   -1855.5436144159      6.37e-10  Convergence criterion met
 Total energy in the final basis set =    -1855.5436144159
   15   -1855.5436266028      6.38e-10  Convergence criterion met
 Total energy in the final basis set =    -1855.5436266028
   15   -1855.5436379731      6.37e-10  Convergence criterion met
 Total energy in the final basis set =    -1855.5436379731

             Standard Nuclear Orientation (Angstroms)
    I     Atom           X                Y                Z
 ----------------------------------------------------------------
    1      N       0.0191350946     0.1761769861    -0.0225835399
    2      C       0.0911294863     0.1382775969     1.3760395749
    3      C       1.3153650681     0.2197912476     2.0397267152
    4      H       2.2348721725     0.3340558241     1.4828101800
    5      C       1.3655141616     0.1330759496     3.4203565020
    6      H       2.3238812813     0.1940397431     3.9193671815
    7      C       0.2041749091    -0.0491525185     4.1513150148
    8      H       0.2374896175    -0.1298978288     5.2295197213
    9      C      -1.0108781588    -0.1196509403     3.4862452061
   10      H      -1.9124221204    -0.2502700260     4.0685119954
   11      C      -1.0954072721    -0.0093413662     2.1052474708
   12      C      -1.0260918204    -0.5001992989    -0.6620084965
   13      C      -0.9041686767    -0.9841684948    -1.9655009286
   14      H      -0.0050692471    -0.8142232718    -2.5392765775
   15      C      -1.9320444061    -1.7089476855    -2.5443058713
   16      H      -1.8077626340    -2.0840402402    -3.5519262342
   17      C      -3.0924231271    -1.9659019230    -1.8358828540
   18      H      -3.8924248059    -2.5468242151    -2.2750490657
   19      C      -3.2275739723    -1.4475469127    -0.5570586200
   20      H      -4.1504548493    -1.6268226320    -0.0233360241
   21      C      -2.2257859928    -0.6923398686     0.0376267135
   22      C       1.1989523845     0.4773437044    -0.7501113661
   23      C       2.0493273626    -0.5340866569    -1.1438102366
   24      H       1.7706711162    -1.5450555333    -0.8749298595
   25      C       1.5138271405     1.7905506624    -1.0596048846
   26      H       0.8555073296     2.5952868464    -0.7596191444
   27      C       2.6752776275     2.0406387628    -1.7600539599
   28      H       2.9246948742     3.0636316007    -2.0139232354
   29      C       3.2208159798    -0.3001666104    -1.8675897553
   30      C       3.5385441119     1.0227082640    -2.1784165196
   31      C       4.7304730526     1.4329280138    -2.9917857916
   32      H       4.5970268210     2.4718142029    -3.2960910888
   33      H       5.6444730840     1.4122329468    -2.3912352641
   34      C      -2.4127869178     0.0400714487     1.3517774595
   35      C      -3.5711368654    -0.5267724222     2.1679620206
   36      H      -4.5095707054    -0.4430357318     1.6201487467
   37      H      -3.7120460709     0.0353842248     3.0907567003
   38      H      -3.4181885244    -1.5757508475     2.4251131865
   39      C       4.9182494682     0.5697188452    -4.2351805894
   40      H       5.4399506878     1.1415857639    -5.0032555861
   41      H       3.9430252273     0.3182818540    -4.6599052592
   42      C       5.7154015506    -0.6580218360    -3.9238700503
   43      C       6.9039310746    -0.8433496407    -4.6240624545
   44      H       7.1820631998    -0.1265403041    -5.3856866357
   45      C       7.7411306699    -1.9182473224    -4.3806665033
   46      C       7.3810769030    -2.8323503033    -3.3883496646
   47      C       6.2054157884    -2.6443158843    -2.6813242392
   48      H       5.9535104608    -3.3779817516    -1.9297759275
   49      C       5.3489201213    -1.5704002684    -2.9270698902
   50      C       8.9393297971    -2.0754756461    -5.1360580190
   51      N       9.9016731648    -2.1897902710    -5.7571375586
   52      C       8.1999265234    -3.9638178504    -3.1000703881
   53      N       8.8511123711    -4.8823581987    -2.8614903082
   54      C       4.0025944793    -1.5877466499    -2.1885082749
   55      C       4.1438349800    -2.3469924302    -0.8731053113
   56      C       4.8058469576    -1.9456083646     0.2683625603
   57      H       5.3191814145    -0.9927209936     0.3073651227
   58      C       4.7945056010    -2.7894604584     1.3722777683
   59      H       5.3070078324    -2.4942003591     2.2780948989
   60      C       4.1262080217    -4.0089684255     1.3272393208
   61      H       4.1251026850    -4.6497517128     2.1988610111
   62      C       3.4557515776    -4.4072820948     0.1802626628
   63      H       2.9284188791    -5.3524588831     0.1526576041
   64      C       3.4704142070    -3.5659284185    -0.9219283870
   65      C       2.8410246519    -3.6997542985    -2.2309165071
   66      C       2.0626761490    -4.7201367760    -2.7572872299
   67      H       1.8461983511    -5.6094553095    -2.1786939528
   68      C       1.5590854029    -4.5820211937    -4.0421796734
   69      H       0.9501546950    -5.3684187725    -4.4681507237
   70      C       1.8284614490    -3.4390856943    -4.7866145138
   71      H       1.4273311651    -3.3431260825    -5.7869974508
   72      C       2.6101243330    -2.4176500038    -4.2591852730
   73      H       2.8098168764    -1.5341826717    -4.8518547553
   74      C       3.1140383697    -2.5550313709    -2.9800800068
   75      C      -2.7360222923     1.5124280759     1.0236440712
   76      H      -1.9501632708     1.9779719532     0.4290964875
   77      H      -3.6655186612     1.5755341030     0.4547898845
   78      H      -2.8520391035     2.0908999232     1.9417084887
 ----------------------------------------------------------------

   15   -1855.5436440281      6.45e-10  Convergence criterion met
 Total energy in the final basis set =    -1855.5436440281
 Final energy is   -1855.54364402809
 **  OPTIMIZATION CONVERGED  **

                    Orbital Energies (a.u.)
 --------------------------------------------------------------

 Alpha MOs
 -- Occupied --
-14.679 -14.661 -14.659 -10.521 -10.520 -10.507 -10.507 -10.505
-10.504 -10.497 -10.493 -10.491 -10.490 -10.490 -10.488 -10.483
-10.475 -10.473 -10.470 -10.468 -10.468 -10.467 -10.466 -10.462
-10.461 -10.460 -10.460 -10.460 -10.459 -10.459 -10.459 -10.458
-10.458 -10.458 -10.458 -10.451 -10.451 -10.443 -10.443 -10.442
-10.442 -10.441 -10.440 -10.437 -10.436 -10.427 -10.424  -1.090
 -1.042  -1.028  -1.025  -1.003  -0.984  -0.963  -0.959  -0.957
 -0.936  -0.928  -0.910  -0.894  -0.886  -0.880  -0.853  -0.850
 -0.848  -0.842  -0.834  -0.819  -0.818  -0.806  -0.792  -0.771
 -0.768  -0.743  -0.726  -0.723  -0.711  -0.706  -0.701  -0.687
 -0.676  -0.673  -0.671  -0.666  -0.664  -0.642  -0.617  -0.611
 -0.611  -0.605  -0.596  -0.580  -0.575  -0.568  -0.561  -0.556
 -0.538  -0.536  -0.532  -0.531  -0.524  -0.522  -0.520  -0.519
 -0.510  -0.505  -0.503  -0.501  -0.498  -0.496  -0.494  -0.491
 -0.489  -0.487  -0.482  -0.480  -0.471  -0.465  -0.456  -0.447
 -0.445  -0.444  -0.442  -0.441  -0.436  -0.435  -0.431  -0.429
 -0.426  -0.425  -0.423  -0.418  -0.416  -0.414  -0.412  -0.408
 -0.407  -0.402  -0.401  -0.400  -0.397  -0.394  -0.390  -0.377
 -0.372  -0.363  -0.345  -0.334  -0.321  -0.310  -0.302  -0.299
 -0.296  -0.289  -0.287  -0.281  -0.265  -0.230

          Ground-State Mulliken Net Atomic Charges

     Atom                 Charge (a.u.)
  ----------------------------------------
      1 N                    -0.699266
      2 C                     0.307967
      3 C                    -0.289386
      4 H                     0.251708
      5 C                    -0.248117
      6 H                     0.226610
      7 C                    -0.232497
      8 H                     0.223767
      9 C                    -0.334596
     10 H                     0.224086
     11 C                     0.162718
     12 C                     0.313288
     13 C                    -0.303245
     14 H                     0.259621
     15 C                    -0.243233
     16 H                     0.227360
     17 C                    -0.235338
     18 H                     0.222822
     19 C                    -0.330622
     20 H                     0.224585
     21 C                     0.146125
     22 C                     0.205238
     23 C                    -0.274806
     24 H                     0.288403
     25 C                    -0.248701
     26 H                     0.244588
     27 C                    -0.312273
     28 H                     0.231786
     29 C                     0.239271
     30 C                     0.047407
     31 C                    -0.521303
     32 H                     0.256074
     33 H                     0.257141
     34 C                    -0.224774
     35 C                    -0.671233
     36 H                     0.232697
     37 H                     0.233029
     38 H                     0.240950
     39 C                    -0.549947
     40 H                     0.263178
     41 H                     0.265769
     42 C                     0.106271
     43 C                    -0.324255
     44 H                     0.262254
     45 C                     0.074887
     46 C                     0.089522
     47 C                    -0.297561
     48 H                     0.291941
     49 C                     0.212791
     50 C                     0.003796
     51 N                    -0.180869
     52 C                     0.002435
     53 N                    -0.181547
     54 C                    -0.434850
     55 C                     0.027853
     56 C                    -0.267845
     57 H                     0.234686
     58 C                    -0.240311
     59 H                     0.239581
     60 C                    -0.221578
     61 H                     0.241506
     62 C                    -0.333927
     63 H                     0.229171
     64 C                     0.159287
     65 C                     0.132863
     66 C                    -0.324753
     67 H                     0.227439
     68 C                    -0.228263
     69 H                     0.240594
     70 C                    -0.233450
     71 H                     0.239008
     72 C                    -0.294417
     73 H                     0.230284
     74 C                     0.161121
     75 C                    -0.601698
     76 H                     0.234486
     77 H                     0.223799
     78 H                     0.222899
  ----------------------------------------
  Sum of atomic charges =     0.000000

                    Cartesian Multipole Moments
 -----------------------------------------------------------------
    Charge (ESU x 10^10)
                 0.0000
    Dipole Moment (Debye)
         X      -6.9390      Y       4.4673      Z       1.4695
       Tot       8.3825
    Quadrupole Moments (Debye-Ang)
        XX    -369.8411     XY      61.6784     YY    -277.0678
        XZ      42.9332     YZ     -24.1387     ZZ    -264.9071

 Total job time:  21869.67s(wall), 83109.07s(cpu)
        *  Thank you very much for using Q-Chem.  Have a nice day.  *
