 Q-Chem 5.1, Q-Chem, Inc., Pleasanton, CA (2018)
 Q-Chem 5.1.1 for Intel X86 EM64T Linux

User input:
--------------------------------------------------------------
$rem
threads 4
jobtype	opt
method PBEh-3c
basis def2-mSVP
mem_static	1024
mem_total	4000
sym_ignore	true
scf_convergence	9
solvent_method	pcm
$end

$molecule
read gsopt_2.mol
$end

$solvent
dielectric	4.33
$end

$pcm
theory iefpcm
$end
--------------------------------------------------------------

   17   -1855.5536586389      4.89e-10  Convergence criterion met
 Total energy in the final basis set =    -1855.5536586389
   16   -1855.5536491489      4.69e-10  Convergence criterion met
 Total energy in the final basis set =    -1855.5536491489
   16   -1855.5540195263      4.21e-10  Convergence criterion met
 Total energy in the final basis set =    -1855.5540195263
   16   -1855.5538915943      3.76e-10  Convergence criterion met
 Total energy in the final basis set =    -1855.5538915943
   16   -1855.5539149424      3.67e-10  Convergence criterion met
 Total energy in the final basis set =    -1855.5539149424
   16   -1855.5539254250      3.66e-10  Convergence criterion met
 Total energy in the final basis set =    -1855.5539254250
   16   -1855.5539228538      3.74e-10  Convergence criterion met
 Total energy in the final basis set =    -1855.5539228538
   16   -1855.5539329834      3.73e-10  Convergence criterion met
 Total energy in the final basis set =    -1855.5539329834
   16   -1855.5539449095      3.68e-10  Convergence criterion met
 Total energy in the final basis set =    -1855.5539449095

             Standard Nuclear Orientation (Angstroms)
    I     Atom           X                Y                Z
 ----------------------------------------------------------------
    1      N       0.0167017950     0.1784014605    -0.0272904272
    2      C       0.0910017520     0.1223336552     1.3700006796
    3      C       1.3171386641     0.1912516785     2.0327403334
    4      H       2.2362884043     0.3114208220     1.4763265771
    5      C       1.3699974476     0.0848201867     3.4123427883
    6      H       2.3298614854     0.1356565082     3.9098163579
    7      C       0.2091072296    -0.1037897763     4.1434139614
    8      H       0.2443051559    -0.1999210859     5.2204014769
    9      C      -1.0080613260    -0.1599559524     3.4797791666
   10      H      -1.9090623530    -0.2939005140     4.0622196189
   11      C      -1.0949277908    -0.0300380378     2.1001857475
   12      C      -1.0340541380    -0.4819341595    -0.6730323108
   13      C      -0.9164787870    -0.9498731664    -1.9833215246
   14      H      -0.0157661035    -0.7797328528    -2.5547974432
   15      C      -1.9506391948    -1.6590627803    -2.5712117426
   16      H      -1.8306248425    -2.0212077893    -3.5842239980
   17      C      -3.1129753553    -1.9165246613    -1.8649629540
   18      H      -3.9180635231    -2.4848611384    -2.3115017343
   19      C      -3.2429883040    -1.4150765472    -0.5783279041
   20      H      -4.1669463473    -1.5943427240    -0.0462757489
   21      C      -2.2344282696    -0.6757023232     0.0257286634
   22      C       1.1971008686     0.4802466567    -0.7553230410
   23      C       2.0466080832    -0.5323055060    -1.1480704901
   24      H       1.7673798488    -1.5430257204    -0.8783387180
   25      C       1.5102935168     1.7932409071    -1.0674495172
   26      H       0.8523183453     2.5991047717    -0.7691234805
   27      C       2.6710592705     2.0422215301    -1.7703298169
   28      H       2.9195492225     3.0645765440    -2.0275595283
   29      C       3.2182966972    -0.2988917118    -1.8716075185
   30      C       3.5349057879     1.0234973935    -2.1864196483
   31      C       4.7258854547     1.4316377214    -3.0017323960
   32      H       4.5921393861     2.4692195116    -3.3096199365
   33      H       5.6396364317     1.4127229546    -2.4008279949
   34      C      -2.4143539792     0.0376516976     1.3514521394
   35      C      -3.5738400115    -0.5354235234     2.1617890184
   36      H      -4.5130825156    -0.4360359385     1.6180966270
   37      H      -3.7071049360     0.0117140220     3.0946082644
   38      H      -3.4273899671    -1.5897648919     2.4003909949
   39      C       4.9124275713     0.5647756788    -4.2429026730
   40      H       5.4322043682     1.1350214289    -5.0130212605
   41      H       3.9376770447     0.3087825771    -4.6658801379
   42      C       5.7114940798    -0.6604453542    -3.9285072367
   43      C       6.8992526875    -0.8467703707    -4.6313111972
   44      H       7.1747698967    -0.1317893163    -5.3955722832
   45      C       7.7362283494    -1.9205658686    -4.3849263278
   46      C       7.3785312411    -2.8321548399    -3.3886579793
   47      C       6.2046691141    -2.6434775985    -2.6797608692
   48      H       5.9549992523    -3.3750578878    -1.9253770475
   49      C       5.3476967493    -1.5699836288    -2.9281307262
   50      C       8.9337718390    -2.0836981728    -5.1397255729
   51      N       9.8974443684    -2.2095739571    -5.7567578869
   52      C       8.2003886388    -3.9611104883    -3.1005046549
   53      N       8.8581144380    -4.8763000891    -2.8661991508
   54      C       4.0034372267    -1.5859445220    -2.1857877543
   55      C       4.1509480081    -2.3349048873    -0.8650688446
   56      C       4.8152291993    -1.9222732559     0.2713295245
   57      H       5.3258496215    -0.9675176774     0.3017351019
   58      C       4.8095395152    -2.7580419090     1.3818965365
   59      H       5.3233935808    -2.4539543786     2.2841714952
   60      C       4.1452255581    -3.9806624050     1.3478262729
   61      H       4.1488791020    -4.6149350911     2.2243609245
   62      C       3.4730375996    -4.3905552234     0.2053394149
   63      H       2.9494831689    -5.3381358806     0.1854984715
   64      C       3.4817451365    -3.5567615620    -0.9030350108
   65      C       2.8498439080    -3.7028091120    -2.2097798358
   66      C       2.0745558036    -4.7307056365    -2.7270533761
   67      H       1.8630750008    -5.6166877224    -2.1413078868
   68      C       1.5678830775    -4.6034919634    -4.0124502843
   69      H       0.9610202639    -5.3953250761    -4.4315313887
   70      C       1.8312469796    -3.4645318439    -4.7659480612
   71      H       1.4271107860    -3.3770982039    -5.7659789390
   72      C       2.6099216629    -2.4356108589    -4.2475682113
   73      H       2.8042217165    -1.5554733313    -4.8471559830
   74      C       3.1167612738    -2.5624036717    -2.9682008635
   75      C      -2.7302373471     1.5168412217     1.0468398024
   76      H      -1.9439131780     1.9881076120     0.4570424698
   77      H      -3.6619062297     1.5933414979     0.4830892656
   78      H      -2.8411399092     2.0811378264     1.9744074408
 ----------------------------------------------------------------

   16   -1855.5539532342      3.74e-10  Convergence criterion met
 Total energy in the final basis set =    -1855.5539532342
 Final energy is   -1855.55395323423
 **  OPTIMIZATION CONVERGED  **

                    Orbital Energies (a.u.)
 --------------------------------------------------------------

 Alpha MOs
 -- Occupied --
-14.679 -14.665 -14.663 -10.521 -10.520 -10.511 -10.510 -10.505
-10.503 -10.494 -10.492 -10.492 -10.491 -10.488 -10.488 -10.480
-10.472 -10.471 -10.468 -10.468 -10.466 -10.465 -10.460 -10.460
-10.458 -10.458 -10.457 -10.456 -10.456 -10.456 -10.456 -10.455
-10.455 -10.455 -10.455 -10.453 -10.452 -10.444 -10.444 -10.444
-10.443 -10.442 -10.441 -10.438 -10.437 -10.425 -10.424  -1.091
 -1.044  -1.029  -1.026  -1.002  -0.982  -0.960  -0.959  -0.959
 -0.935  -0.925  -0.910  -0.893  -0.884  -0.878  -0.851  -0.849
 -0.847  -0.840  -0.835  -0.819  -0.817  -0.805  -0.790  -0.770
 -0.767  -0.741  -0.724  -0.723  -0.710  -0.705  -0.701  -0.685
 -0.674  -0.672  -0.671  -0.664  -0.663  -0.641  -0.618  -0.612
 -0.610  -0.602  -0.594  -0.578  -0.572  -0.566  -0.559  -0.553
 -0.538  -0.535  -0.530  -0.530  -0.521  -0.521  -0.520  -0.516
 -0.507  -0.503  -0.502  -0.500  -0.497  -0.495  -0.492  -0.491
 -0.488  -0.486  -0.481  -0.478  -0.470  -0.462  -0.457  -0.450
 -0.448  -0.445  -0.441  -0.441  -0.436  -0.435  -0.432  -0.428
 -0.425  -0.424  -0.421  -0.418  -0.417  -0.413  -0.411  -0.408
 -0.405  -0.403  -0.402  -0.399  -0.395  -0.393  -0.388  -0.378
 -0.373  -0.364  -0.343  -0.333  -0.320  -0.309  -0.301  -0.297
 -0.296  -0.289  -0.288  -0.283  -0.264  -0.232

          Ground-State Mulliken Net Atomic Charges

     Atom                 Charge (a.u.)
  ----------------------------------------
      1 N                    -0.696220
      2 C                     0.306880
      3 C                    -0.298831
      4 H                     0.258676
      5 C                    -0.257862
      6 H                     0.237479
      7 C                    -0.244109
      8 H                     0.233591
      9 C                    -0.341418
     10 H                     0.234494
     11 C                     0.154420
     12 C                     0.311311
     13 C                    -0.309998
     14 H                     0.264637
     15 C                    -0.253662
     16 H                     0.237585
     17 C                    -0.246696
     18 H                     0.232891
     19 C                    -0.337634
     20 H                     0.235008
     21 C                     0.138921
     22 C                     0.200830
     23 C                    -0.275335
     24 H                     0.288955
     25 C                    -0.256760
     26 H                     0.252505
     27 C                    -0.320361
     28 H                     0.242906
     29 C                     0.238939
     30 C                     0.046208
     31 C                    -0.525033
     32 H                     0.263437
     33 H                     0.260793
     34 C                    -0.220645
     35 C                    -0.675991
     36 H                     0.237452
     37 H                     0.237988
     38 H                     0.241135
     39 C                    -0.554241
     40 H                     0.271990
     41 H                     0.271603
     42 C                     0.104913
     43 C                    -0.324626
     44 H                     0.275206
     45 C                     0.071970
     46 C                     0.086875
     47 C                    -0.298218
     48 H                     0.296799
     49 C                     0.213918
     50 C                     0.012684
     51 N                    -0.200639
     52 C                     0.010484
     53 N                    -0.201424
     54 C                    -0.431300
     55 C                     0.027469
     56 C                    -0.274177
     57 H                     0.244059
     58 C                    -0.249928
     59 H                     0.248415
     60 C                    -0.231675
     61 H                     0.249932
     62 C                    -0.341669
     63 H                     0.240332
     64 C                     0.156635
     65 C                     0.128579
     66 C                    -0.333366
     67 H                     0.238947
     68 C                    -0.237727
     69 H                     0.249603
     70 C                    -0.242181
     71 H                     0.248426
     72 C                    -0.302250
     73 H                     0.242963
     74 C                     0.155415
     75 C                    -0.608887
     76 H                     0.236038
     77 H                     0.226541
     78 H                     0.226026
  ----------------------------------------
  Sum of atomic charges =     0.000000

                    Cartesian Multipole Moments
 -----------------------------------------------------------------
    Charge (ESU x 10^10)
                 0.0000
    Dipole Moment (Debye)
         X      -7.3618      Y       5.0821      Z       1.3928
       Tot       9.0534
    Quadrupole Moments (Debye-Ang)
        XX    -375.8326     XY      67.1435     YY    -278.3110
        XZ      44.6995     YZ     -26.5771     ZZ    -263.2710

 Total job time:  20233.39s(wall), 77148.01s(cpu)
        *  Thank you very much for using Q-Chem.  Have a nice day.  *
