 Q-Chem 5.1, Q-Chem, Inc., Pleasanton, CA (2018)
 Q-Chem 5.1.1 for Intel X86 EM64T Linux

User input:
--------------------------------------------------------------
$rem
threads 4
jobtype	opt
method PBEh-3c
basis def2-mSVP
mem_static	1024
mem_total	4000
sym_ignore	true
scf_convergence	9
solvent_method	pcm
$end

$molecule
read gsopt.mol
$end

$solvent
dielectric	8.93
$end

$pcm
theory iefpcm
$end
--------------------------------------------------------------

   17   -1855.5597951396      5.32e-10  Convergence criterion met
 Total energy in the final basis set =    -1855.5597951396
   16   -1855.5605454696      5.06e-10  Convergence criterion met
 Total energy in the final basis set =    -1855.5605454696
   16   -1855.5605432755      4.52e-10  Convergence criterion met
 Total energy in the final basis set =    -1855.5605432755
   16   -1855.5606805999      4.53e-10  Convergence criterion met
 Total energy in the final basis set =    -1855.5606805999
   16   -1855.5606481459      4.55e-10  Convergence criterion met
 Total energy in the final basis set =    -1855.5606481459
   16   -1855.5606199307      4.49e-10  Convergence criterion met
 Total energy in the final basis set =    -1855.5606199307
   16   -1855.5605980744      4.55e-10  Convergence criterion met
 Total energy in the final basis set =    -1855.5605980744
   16   -1855.5605808169      4.69e-10  Convergence criterion met
 Total energy in the final basis set =    -1855.5605808169
   16   -1855.5605681174      4.62e-10  Convergence criterion met
 Total energy in the final basis set =    -1855.5605681174
   16   -1855.5605714443      4.74e-10  Convergence criterion met
 Total energy in the final basis set =    -1855.5605714443

             Standard Nuclear Orientation (Angstroms)
    I     Atom           X                Y                Z
 ----------------------------------------------------------------
    1      N      -0.0172966954     0.1016299952    -0.0673653322
    2      C       0.0278574892    -0.0843544004     1.3187683706
    3      C       1.2463455385    -0.1878972535     1.9921045388
    4      H       2.1797136296    -0.0986213082     1.4543440362
    5      C       1.2726795872    -0.4210875501     3.3569801461
    6      H       2.2268994269    -0.5025427785     3.8613342460
    7      C       0.0902319716    -0.5657860973     4.0633509119
    8      H       0.1024518930    -0.7609229998     5.1274366477
    9      C      -1.1180102054    -0.4448318575     3.3922672019
   10      H      -2.0341757876    -0.5424305982     3.9581992143
   11      C      -1.1765425155    -0.1852314497     2.0287695684
   12      C      -1.1352061806    -0.3489494752    -0.7786079402
   13      C      -1.0591318501    -0.6621250088    -2.1385432734
   14      H      -0.1434441432    -0.5171106761    -2.6929273476
   15      C      -2.1592192341    -1.1756492988    -2.8048074300
   16      H      -2.0689217269    -1.4206190804    -3.8554434060
   17      C      -3.3500264564    -1.3859438397    -2.1304648816
   18      H      -4.2089323841    -1.8032310376    -2.6392438442
   19      C      -3.4369076251    -1.0291640201    -0.7927910946
   20      H      -4.3815694244    -1.1641239359    -0.2845665890
   21      C      -2.3581006365    -0.4862715396    -0.1056563964
   22      C       1.2070383206     0.2434598997    -0.7744336815
   23      C       1.7138149695     1.4954777805    -1.0646984710
   24      H       1.1977771430     2.3874166757    -0.7335159474
   25      C       2.8984122469     1.5776768931    -1.7763390890
   26      H       3.3219167962     2.5523121986    -1.9852673744
   27      C       1.8752953748    -0.8887890152    -1.2067167817
   28      H       1.4351411803    -1.8468475944    -0.9647032285
   29      C       3.5660827476     0.4466749943    -2.2415133419
   30      C       3.0369469155    -0.8199790789    -1.9701543569
   31      C       4.8786819623     0.6356746996    -2.9364254788
   32      H       5.1435056232     1.6928444274    -2.9082590145
   33      H       4.8213877115     0.3684666984    -3.9957743694
   34      C      -2.4768021826     0.0864925285     1.2931123830
   35      C      -3.6918161552    -0.4596153741     2.0387709556
   36      H      -3.7811992108    -0.0056801822     3.0248710181
   37      H      -4.6136023529    -0.2143095820     1.5123620206
   38      H      -3.6461420891    -1.5426158478     2.1612026774
   39      C       5.9770747512    -0.1788037218    -2.2553729517
   40      H       6.9403110973     0.3106498995    -2.4017152449
   41      H       5.8078778695    -0.1981129940    -1.1751126477
   42      C       6.0646484864    -1.5699035096    -2.8036922628
   43      C       7.3341206897    -2.0261894897    -3.1687283374
   44      H       8.1901045914    -1.3900843868    -2.9852807188
   45      C       7.5303765518    -3.2551737765    -3.7667313777
   46      C       4.9548298854    -2.3888231495    -3.0256870871
   47      C       5.1612359946    -3.6204857406    -3.6550511494
   48      H       4.3197612449    -4.2688361883    -3.8594985946
   49      C       6.4146769288    -4.0610734643    -4.0281135943
   50      C       8.8411901981    -3.6833878749    -4.1244336859
   51      N       9.9000765356    -4.0308880368    -4.4135214233
   52      C       6.5576033778    -5.3271809381    -4.6676300865
   53      N       6.6695969633    -6.3497071100    -5.1846892861
   54      C       3.4993225305    -2.1442789016    -2.6020992344
   55      C       3.1153485746    -3.3164851138    -1.7017499099
   56      C       3.6488907331    -3.6649748434    -0.4770413001
   57      H       4.4511322361    -3.0886329966    -0.0329320366
   58      C       3.1299884528    -4.7737662678     0.1828742351
   59      H       3.5335730030    -5.0611923030     1.1447393371
   60      C       2.0977817428    -5.5188339073    -0.3799948153
   61      H       1.7079277890    -6.3781863044     0.1495924852
   62      C       1.5652638956    -5.1706958477    -1.6131138273
   63      H       0.7614591502    -5.7509991733    -2.0489852389
   64      C       2.0835302361    -4.0643231673    -2.2693506296
   65      C       1.7278945938    -3.4740235512    -3.5537490576
   66      C       0.7619927550    -3.8421846782    -4.4794548239
   67      H       0.1152191925    -4.6925885531    -4.3018122140
   68      C       0.6392569901    -3.0984744746    -5.6447042826
   69      H      -0.1075998836    -3.3702543605    -6.3792656601
   70      C       1.4711390082    -2.0076971858    -5.8793483996
   71      H       1.3658126589    -1.4401767780    -6.7947106559
   72      C       2.4368459844    -1.6382461215    -4.9489778599
   73      H       3.0763936220    -0.7852661866    -5.1392975557
   74      C       2.5566750432    -2.3767734251    -3.7873717957
   75      C      -2.6464981137     1.6137887829     1.1553010958
   76      H      -1.8135006121     2.0684561112     0.6185464392
   77      H      -2.7103113205     2.0808253795     2.1399090430
   78      H      -3.5628705109     1.8427543727     0.6075829994
 ----------------------------------------------------------------

   16   -1855.5605752931      5.29e-10  Convergence criterion met
 Total energy in the final basis set =    -1855.5605752931
 Final energy is   -1855.56057529312
 **  OPTIMIZATION CONVERGED  **

                    Orbital Energies (a.u.)
 --------------------------------------------------------------

 Alpha MOs
 -- Occupied --
-14.681 -14.666 -14.665 -10.520 -10.519 -10.514 -10.513 -10.504
-10.502 -10.494 -10.494 -10.494 -10.491 -10.488 -10.487 -10.479
-10.470 -10.470 -10.469 -10.468 -10.465 -10.464 -10.458 -10.457
-10.457 -10.457 -10.456 -10.456 -10.455 -10.455 -10.455 -10.455
-10.455 -10.454 -10.454 -10.454 -10.452 -10.446 -10.446 -10.445
-10.444 -10.444 -10.442 -10.439 -10.438 -10.425 -10.424  -1.093
 -1.045  -1.031  -1.026  -1.002  -0.982  -0.960  -0.960  -0.959
 -0.933  -0.924  -0.911  -0.892  -0.884  -0.878  -0.852  -0.849
 -0.847  -0.838  -0.836  -0.820  -0.816  -0.805  -0.788  -0.770
 -0.767  -0.740  -0.723  -0.722  -0.710  -0.706  -0.701  -0.685
 -0.673  -0.672  -0.670  -0.663  -0.661  -0.640  -0.618  -0.613
 -0.610  -0.602  -0.590  -0.578  -0.572  -0.564  -0.558  -0.552
 -0.539  -0.535  -0.530  -0.528  -0.522  -0.521  -0.519  -0.513
 -0.507  -0.503  -0.501  -0.499  -0.496  -0.494  -0.491  -0.490
 -0.489  -0.485  -0.482  -0.477  -0.468  -0.462  -0.457  -0.453
 -0.449  -0.445  -0.443  -0.441  -0.437  -0.436  -0.433  -0.426
 -0.425  -0.422  -0.420  -0.419  -0.418  -0.414  -0.410  -0.407
 -0.405  -0.403  -0.402  -0.398  -0.395  -0.392  -0.388  -0.378
 -0.373  -0.367  -0.342  -0.335  -0.318  -0.308  -0.303  -0.297
 -0.295  -0.291  -0.288  -0.285  -0.264  -0.233

          Ground-State Mulliken Net Atomic Charges

     Atom                 Charge (a.u.)
  ----------------------------------------
      1 N                    -0.686016
      2 C                     0.311083
      3 C                    -0.311115
      4 H                     0.261410
      5 C                    -0.262691
      6 H                     0.244511
      7 C                    -0.251889
      8 H                     0.240039
      9 C                    -0.343113
     10 H                     0.241378
     11 C                     0.145170
     12 C                     0.308393
     13 C                    -0.312556
     14 H                     0.269973
     15 C                    -0.259890
     16 H                     0.244320
     17 C                    -0.253935
     18 H                     0.238875
     19 C                    -0.340311
     20 H                     0.241225
     21 C                     0.134049
     22 C                     0.194239
     23 C                    -0.262180
     24 H                     0.257376
     25 C                    -0.325704
     26 H                     0.249874
     27 C                    -0.283617
     28 H                     0.284278
     29 C                     0.080628
     30 C                     0.191764
     31 C                    -0.550337
     32 H                     0.272161
     33 H                     0.264799
     34 C                    -0.221171
     35 C                    -0.677526
     36 H                     0.241190
     37 H                     0.240782
     38 H                     0.240521
     39 C                    -0.533780
     40 H                     0.272717
     41 H                     0.272131
     42 C                     0.081024
     43 C                    -0.323620
     44 H                     0.283512
     45 C                     0.069866
     46 C                     0.250784
     47 C                    -0.279148
     48 H                     0.298596
     49 C                     0.069363
     50 C                     0.017800
     51 N                    -0.212895
     52 C                     0.014848
     53 N                    -0.213433
     54 C                    -0.427537
     55 C                     0.057236
     56 C                    -0.284803
     57 H                     0.249333
     58 C                    -0.252940
     59 H                     0.254195
     60 C                    -0.239591
     61 H                     0.255185
     62 C                    -0.344149
     63 H                     0.246695
     64 C                     0.147016
     65 C                     0.128756
     66 C                    -0.340512
     67 H                     0.246272
     68 C                    -0.244509
     69 H                     0.254732
     70 C                    -0.250175
     71 H                     0.254450
     72 C                    -0.302651
     73 H                     0.252480
     74 C                     0.136074
     75 C                    -0.612690
     76 H                     0.236404
     77 H                     0.228217
     78 H                     0.228761
  ----------------------------------------
  Sum of atomic charges =     0.000000

                    Cartesian Multipole Moments
 -----------------------------------------------------------------
    Charge (ESU x 10^10)
                 0.0000
    Dipole Moment (Debye)
         X      -5.4254      Y       7.2537      Z       3.3089
       Tot       9.6436
    Quadrupole Moments (Debye-Ang)
        XX    -332.6238     XY      82.6049     YY    -309.4392
        XZ      50.7892     YZ     -47.4363     ZZ    -280.0544

 Total job time:  25105.22s(wall), 94500.93s(cpu)
        *  Thank you very much for using Q-Chem.  Have a nice day.  *
