 Q-Chem 5.1, Q-Chem, Inc., Pleasanton, CA (2018)
 Q-Chem 5.1.1 for Intel X86 EM64T Linux

User input:
--------------------------------------------------------------
$rem
threads 4
jobtype	opt
method PBEh-3c
basis def2-mSVP
mem_static	1024
mem_total	4000
sym_ignore	true
scf_convergence	9
solvent_method	pcm
$end

$molecule
read gsopt.mol
$end

$solvent
dielectric	2.03
$end

$pcm
theory iefpcm
$end
--------------------------------------------------------------

   17   -1855.5437495254      5.99e-10  Convergence criterion met
 Total energy in the final basis set =    -1855.5437495254
   15   -1855.5442845722      8.00e-10  Convergence criterion met
 Total energy in the final basis set =    -1855.5442845722
   15   -1855.5442367395      6.75e-10  Convergence criterion met
 Total energy in the final basis set =    -1855.5442367395
   15   -1855.5443504957      6.37e-10  Convergence criterion met
 Total energy in the final basis set =    -1855.5443504957
   15   -1855.5443417944      6.21e-10  Convergence criterion met
 Total energy in the final basis set =    -1855.5443417944
   15   -1855.5443220835      6.24e-10  Convergence criterion met
 Total energy in the final basis set =    -1855.5443220835
   15   -1855.5443158623      6.24e-10  Convergence criterion met
 Total energy in the final basis set =    -1855.5443158623
   15   -1855.5442965972      6.27e-10  Convergence criterion met
 Total energy in the final basis set =    -1855.5442965972
   15   -1855.5442912806      6.27e-10  Convergence criterion met
 Total energy in the final basis set =    -1855.5442912806
   15   -1855.5442876811      6.28e-10  Convergence criterion met
 Total energy in the final basis set =    -1855.5442876811

             Standard Nuclear Orientation (Angstroms)
    I     Atom           X                Y                Z
 ----------------------------------------------------------------
    1      N      -0.0126782923     0.0978698363    -0.0607632986
    2      C       0.0266897330    -0.0691217728     1.3285585176
    3      C       1.2411088297    -0.1578900636     2.0094341285
    4      H       2.1762383410    -0.0724948717     1.4744048376
    5      C       1.2604967249    -0.3725970405     3.3767459860
    6      H       2.2117496357    -0.4428654099     3.8880715023
    7      C       0.0754816023    -0.5141086772     4.0776428061
    8      H       0.0826182074    -0.6959512759     5.1439566396
    9      C      -1.1287782281    -0.4082530322     3.3984082237
   10      H      -2.0477060461    -0.5055467107     3.9597358751
   11      C      -1.1808358514    -0.1659676181     2.0323404320
   12      C      -1.1226554244    -0.3754137679    -0.7722162388
   13      C      -1.0365140953    -0.7130344224    -2.1248203606
   14      H      -0.1194339562    -0.5732616003    -2.6780495062
   15      C      -2.1291182676    -1.2459661136    -2.7866575882
   16      H      -2.0302110139    -1.5096164296    -3.8317592074
   17      C      -3.3215702679    -1.4515773924    -2.1156392934
   18      H      -4.1747156522    -1.8839048429    -2.6213050678
   19      C      -3.4182414756    -1.0711472517    -0.7860397408
   20      H      -4.3640326642    -1.2045081030    -0.2797499974
   21      C      -2.3475878017    -0.5084792171    -0.1036736717
   22      C       1.2136687649     0.2385151327    -0.7617119521
   23      C       1.7206354855     1.4900734200    -1.0529926442
   24      H       1.2007740660     2.3804634426    -0.7244815767
   25      C       2.9066157600     1.5729123377    -1.7611647041
   26      H       3.3295428401     2.5479444511    -1.9697205546
   27      C       1.8855328585    -0.8931987551    -1.1897552151
   28      H       1.4466500314    -1.8513718524    -0.9462517611
   29      C       3.5744899797     0.4425778272    -2.2259571907
   30      C       3.0457986300    -0.8241205252    -1.9550271748
   31      C       4.8878439190     0.6321286835    -2.9203604551
   32      H       5.1545542732     1.6890262957    -2.8868933135
   33      H       4.8317408601     0.3715577040    -3.9815799923
   34      C      -2.4764893098     0.0889907641     1.2835658159
   35      C      -3.6946586103    -0.4471898390     2.0308697839
   36      H      -3.7918070778     0.0225323097     3.0089656309
   37      H      -4.6140868683    -0.2117685471     1.4956417986
   38      H      -3.6472069567    -1.5278897374     2.1707661134
   39      C       5.9845553275    -0.1898754018    -2.2456350949
   40      H       6.9499209101     0.2975097956    -2.3885136611
   41      H       5.8144032030    -0.2120545781    -1.1655876429
   42      C       6.0674435134    -1.5782772645    -2.8035518878
   43      C       7.3323308565    -2.0349412567    -3.1795393963
   44      H       8.1914685874    -1.4021991991    -2.9990461936
   45      C       7.5254570890    -3.2609153650    -3.7861659833
   46      C       4.9545768771    -2.3929718356    -3.0254786125
   47      C       5.1571578764    -3.6210012983    -3.6617879958
   48      H       4.3128041649    -4.2662056573    -3.8641322429
   49      C       6.4076251694    -4.0633729354    -4.0446528192
   50      C       8.8367550312    -3.6818811039    -4.1520841215
   51      N       9.9007592895    -4.0111361051    -4.4427325551
   52      C       6.5401559433    -5.3277534407    -4.6910211303
   53      N       6.6335718550    -6.3493695363    -5.2128449321
   54      C       3.5013748000    -2.1461091242    -2.5962404904
   55      C       3.1118893025    -3.3236000909    -1.7056279573
   56      C       3.6460151189    -3.6879276082    -0.4863040655
   57      H       4.4535415823    -3.1215784328    -0.0393644608
   58      C       3.1217719365    -4.7984745211     0.1647607653
   59      H       3.5258664823    -5.0976060222     1.1226032748
   60      C       2.0828710641    -5.5300766537    -0.4012933202
   61      H       1.6879178450    -6.3908442640     0.1217508035
   62      C       1.5497089134    -5.1665697423    -1.6287306773
   63      H       0.7397228846    -5.7367498499    -2.0660793820
   64      C       2.0735253505    -4.0588247938    -2.2769113167
   65      C       1.7194917128    -3.4556404689    -3.5552706969
   66      C       0.7497946107    -3.8086568702    -4.4820624808
   67      H       0.0967125062    -4.6550730226    -4.3099865729
   68      C       0.6301625836    -3.0556954829    -5.6407370446
   69      H      -0.1185509116    -3.3175876385    -6.3768316949
   70      C       1.4676691540    -1.9684496836    -5.8675614800
   71      H       1.3643821861    -1.3929941075    -6.7779939296
   72      C       2.4363655889    -1.6133504476    -4.9358376307
   73      H       3.0794810924    -0.7615492355    -5.1183438450
   74      C       2.5547527314    -2.3623976290    -3.7814831135
   75      C      -2.6495226821     1.6128940559     1.1168953986
   76      H      -1.8154110330     2.0575063215     0.5742016221
   77      H      -2.7159758393     2.0997133709     2.0916407051
   78      H      -3.5631587680     1.8299057239     0.5600274286
 ----------------------------------------------------------------

   15   -1855.5442886546      6.31e-10  Convergence criterion met
 Total energy in the final basis set =    -1855.5442886546
 Final energy is   -1855.54428865460
 **  OPTIMIZATION CONVERGED  **

                    Orbital Energies (a.u.)
 --------------------------------------------------------------

 Alpha MOs
 -- Occupied --
-14.680 -14.661 -14.658 -10.520 -10.519 -10.507 -10.506 -10.504
-10.504 -10.497 -10.493 -10.491 -10.491 -10.490 -10.489 -10.482
-10.474 -10.473 -10.470 -10.468 -10.467 -10.467 -10.465 -10.462
-10.461 -10.461 -10.460 -10.460 -10.460 -10.459 -10.459 -10.459
-10.458 -10.457 -10.457 -10.452 -10.451 -10.444 -10.444 -10.442
-10.442 -10.441 -10.439 -10.437 -10.436 -10.427 -10.424  -1.091
 -1.042  -1.028  -1.024  -1.002  -0.984  -0.963  -0.959  -0.958
 -0.935  -0.928  -0.910  -0.894  -0.887  -0.880  -0.853  -0.850
 -0.848  -0.841  -0.834  -0.819  -0.818  -0.806  -0.790  -0.771
 -0.769  -0.743  -0.726  -0.723  -0.712  -0.706  -0.702  -0.687
 -0.676  -0.673  -0.671  -0.666  -0.663  -0.642  -0.617  -0.612
 -0.610  -0.606  -0.593  -0.581  -0.576  -0.568  -0.562  -0.555
 -0.538  -0.536  -0.533  -0.530  -0.523  -0.523  -0.520  -0.516
 -0.511  -0.504  -0.503  -0.500  -0.497  -0.497  -0.494  -0.490
 -0.488  -0.488  -0.483  -0.481  -0.471  -0.465  -0.457  -0.448
 -0.446  -0.444  -0.442  -0.441  -0.437  -0.436  -0.431  -0.427
 -0.426  -0.423  -0.421  -0.418  -0.417  -0.415  -0.410  -0.408
 -0.408  -0.402  -0.401  -0.400  -0.395  -0.394  -0.391  -0.376
 -0.373  -0.365  -0.344  -0.336  -0.319  -0.309  -0.304  -0.298
 -0.296  -0.289  -0.287  -0.282  -0.266  -0.230

          Ground-State Mulliken Net Atomic Charges

     Atom                 Charge (a.u.)
  ----------------------------------------
      1 N                    -0.690288
      2 C                     0.314110
      3 C                    -0.296611
      4 H                     0.248744
      5 C                    -0.247429
      6 H                     0.227053
      7 C                    -0.233544
      8 H                     0.224166
      9 C                    -0.332458
     10 H                     0.224371
     11 C                     0.159651
     12 C                     0.311155
     13 C                    -0.301509
     14 H                     0.264519
     15 C                    -0.244777
     16 H                     0.229459
     17 C                    -0.236098
     18 H                     0.222178
     19 C                    -0.329515
     20 H                     0.224084
     21 C                     0.147319
     22 C                     0.198689
     23 C                    -0.249458
     24 H                     0.245116
     25 C                    -0.314267
     26 H                     0.231787
     27 C                    -0.282180
     28 H                     0.286066
     29 C                     0.084624
     30 C                     0.190607
     31 C                    -0.542628
     32 H                     0.260501
     33 H                     0.255215
     34 C                    -0.228461
     35 C                    -0.670078
     36 H                     0.232837
     37 H                     0.232630
     38 H                     0.240971
     39 C                    -0.528030
     40 H                     0.258784
     41 H                     0.265566
     42 C                     0.080540
     43 C                    -0.323633
     44 H                     0.263111
     45 C                     0.074472
     46 C                     0.248134
     47 C                    -0.274755
     48 H                     0.289934
     49 C                     0.073691
     50 C                     0.003768
     51 N                    -0.181765
     52 C                     0.002359
     53 N                    -0.182191
     54 C                    -0.433955
     55 C                     0.061428
     56 C                    -0.272474
     57 H                     0.231457
     58 C                    -0.236939
     59 H                     0.240238
     60 C                    -0.224095
     61 H                     0.241457
     62 C                    -0.330743
     63 H                     0.228419
     64 C                     0.152640
     65 C                     0.135938
     66 C                    -0.326800
     67 H                     0.228293
     68 C                    -0.232341
     69 H                     0.240591
     70 C                    -0.236039
     71 H                     0.240016
     72 C                    -0.288429
     73 H                     0.232432
     74 C                     0.141908
     75 C                    -0.601412
     76 H                     0.234970
     77 H                     0.222923
     78 H                     0.223980
  ----------------------------------------
  Sum of atomic charges =     0.000000

                    Cartesian Multipole Moments
 -----------------------------------------------------------------
    Charge (ESU x 10^10)
                 0.0000
    Dipole Moment (Debye)
         X      -5.2015      Y       6.0688      Z       3.0158
       Tot       8.5428
    Quadrupole Moments (Debye-Ang)
        XX    -329.8831     XY      73.0147     YY    -303.7926
        XZ      47.2606     YZ     -42.0418     ZZ    -280.2274

 Total job time:  26080.25s(wall), 96907.69s(cpu)
        *  Thank you very much for using Q-Chem.  Have a nice day.  *
