 Q-Chem 5.1, Q-Chem, Inc., Pleasanton, CA (2018)
 Q-Chem 5.1.1 for Intel X86 EM64T Linux

User input:
--------------------------------------------------------------
$rem
threads 4
jobtype	opt
method PBEh-3c
basis def2-mSVP
mem_static	1024
mem_total	4000
sym_ignore	true
scf_convergence	9
solvent_method	pcm
$end

$molecule
read gsopt.mol
$end

$solvent
dielectric	2.38
$end

$pcm
theory iefpcm
$end
--------------------------------------------------------------

   17   -1855.5462011266      5.60e-10  Convergence criterion met
 Total energy in the final basis set =    -1855.5462011266
   15   -1855.5467619992      8.92e-10  Convergence criterion met
 Total energy in the final basis set =    -1855.5467619992
   15   -1855.5467211902      7.68e-10  Convergence criterion met
 Total energy in the final basis set =    -1855.5467211902
   15   -1855.5468328442      7.35e-10  Convergence criterion met
 Total energy in the final basis set =    -1855.5468328442
   15   -1855.5468255626      7.21e-10  Convergence criterion met
 Total energy in the final basis set =    -1855.5468255626
   15   -1855.5468033636      7.26e-10  Convergence criterion met
 Total energy in the final basis set =    -1855.5468033636
   15   -1855.5467982229      7.28e-10  Convergence criterion met
 Total energy in the final basis set =    -1855.5467982229
   15   -1855.5467764260      7.30e-10  Convergence criterion met
 Total energy in the final basis set =    -1855.5467764260
   15   -1855.5467725472      7.32e-10  Convergence criterion met
 Total energy in the final basis set =    -1855.5467725472
   15   -1855.5467661476      7.33e-10  Convergence criterion met
 Total energy in the final basis set =    -1855.5467661476

             Standard Nuclear Orientation (Angstroms)
    I     Atom           X                Y                Z
 ----------------------------------------------------------------
    1      N      -0.0134320955     0.0979542382    -0.0615069447
    2      C       0.0268891709    -0.0716480499     1.3273297318
    3      C       1.2419805957    -0.1628271719     2.0069727643
    4      H       2.1767716991    -0.0773145834     1.4713311754
    5      C       1.2625560363    -0.3800448185     3.3739631517
    6      H       2.2143132032    -0.4522217489     3.8841343752
    7      C       0.0779824255    -0.5215660030     4.0758775238
    8      H       0.0859713771    -0.7052185800     5.1419056405
    9      C      -1.1269259225    -0.4132570744     3.3979643169
   10      H      -2.0453841310    -0.5102810689     3.9601329522
   11      C      -1.1801018932    -0.1686678494     2.0322217856
   12      C      -1.1248869177    -0.3713943457    -0.7728349287
   13      C      -1.0404826853    -0.7052818966    -2.1265873309
   14      H      -0.1235569335    -0.5652331739    -2.6800139090
   15      C      -2.1344518566    -1.2348287898    -2.7890722940
   16      H      -2.0368673343    -1.4958360571    -3.8349923551
   17      C      -3.3267257435    -1.4406190174    -2.1175138913
   18      H      -4.1809480061    -1.8703497926    -2.6236276063
   19      C      -3.4216667139    -1.0638072840    -0.7866313598
   20      H      -4.3673054266    -1.1970820511    -0.2799871453
   21      C      -2.3494957394    -0.5046631648    -0.1035241423
   22      C       1.2125055748     0.2387396139    -0.7635929526
   23      C       1.7192123211     1.4904221865    -1.0548672083
   24      H       1.1998308135     2.3809752647    -0.7259036178
   25      C       2.9048281763     1.5733145839    -1.7637999630
   26      H       3.3276181172     2.5483513727    -1.9725657168
   27      C       1.8838465336    -0.8930328988    -1.1923664722
   28      H       1.4449013570    -1.8512261180    -0.9489828276
   29      C       3.5727337419     0.4429493530    -2.2286962255
   30      C       3.0442086505    -0.8238162855    -1.9575496560
   31      C       4.8858532451     0.6326402231    -2.9233734867
   32      H       5.1520244893     1.6896557438    -2.8909174110
   33      H       4.8296060064     0.3709105073    -3.9842733188
   34      C      -2.4765287057     0.0890010826     1.2855617478
   35      C      -3.6941826657    -0.4486066521     2.0327563854
   36      H      -3.7900231682     0.0186744777     3.0121265480
   37      H      -4.6140328372    -0.2115450020     1.4990116552
   38      H      -3.6470259736    -1.5296845630     2.1699007032
   39      C       5.9831333284    -0.1877662348    -2.2476558101
   40      H       6.9480311641     0.3001037916    -2.3915033796
   41      H       5.8134059787    -0.2090692192    -1.1675201836
   42      C       6.0669573905    -1.5767940094    -2.8035984083
   43      C       7.3327119744    -2.0333839748    -3.1773983597
   44      H       8.1912738355    -1.4000474146    -2.9962670901
   45      C       7.5265997909    -3.2599391996    -3.7823788380
   46      C       4.9546982034    -2.3923487279    -3.0255373561
   47      C       5.1581724292    -3.6210511630    -3.6605238114
   48      H       4.3143681902    -4.2668565294    -3.8632605592
   49      C       6.4092399792    -4.0630581974    -4.0414926802
   50      C       8.8380337521    -3.6818354031    -4.1465294572
   51      N       9.9015450896    -4.0134390863    -4.4364530763
   52      C       6.5436400684    -5.3278032775    -4.6866047804
   53      N       6.6400582472    -6.3496217340    -5.2075759353
   54      C       3.5010325519    -2.1460484278    -2.5974526130
   55      C       3.1123920948    -3.3229096531    -1.7055522497
   56      C       3.6463717411    -3.6850488240    -0.4854397036
   57      H       4.4530791252    -3.1172846732    -0.0387436352
   58      C       3.1228647712    -4.7953850896     0.1667919424
   59      H       3.5267898963    -5.0928732302     1.1252524384
   60      C       2.0849236880    -5.5288595190    -0.3989036862
   61      H       1.6905939191    -6.3893906224     0.1250632525
   62      C       1.5519426602    -5.1674942437    -1.6271817720
   63      H       0.7427626732    -5.7390065280    -2.0643539584
   64      C       2.0750495901    -4.0599466836    -2.2764435222
   65      C       1.7209950401    -3.4586892898    -3.5557485316
   66      C       0.7521281639    -3.8141194177    -4.4825926174
   67      H       0.1000018583    -4.6611495485    -4.3097091930
   68      C       0.6322853073    -3.0626915315    -5.6423687448
   69      H      -0.1159217962    -3.3262120795    -6.3784260929
   70      C       1.4689094821    -1.9748582986    -5.8702338688
   71      H       1.3655104871    -1.4006718323    -6.7814882068
   72      C       2.4368653638    -1.6174358014    -4.9384648987
   73      H       3.0793213227    -0.7653472481    -5.1220617292
   74      C       2.5552719658    -2.3648180560    -3.7829412726
   75      C      -2.6488632003     1.6134826225     1.1233360930
   76      H      -1.8149204077     2.0594633576     0.5814009373
   77      H      -2.7146464798     2.0973480248     2.0996113529
   78      H      -3.5629314368     1.8324883009     0.5679234677
 ----------------------------------------------------------------

   15   -1855.5467676896      7.35e-10  Convergence criterion met
 Total energy in the final basis set =    -1855.5467676896
 Final energy is   -1855.54676768963
 **  OPTIMIZATION CONVERGED  **

                    Orbital Energies (a.u.)
 --------------------------------------------------------------

 Alpha MOs
 -- Occupied --
-14.680 -14.662 -14.659 -10.520 -10.519 -10.507 -10.507 -10.505
-10.503 -10.496 -10.493 -10.492 -10.491 -10.489 -10.489 -10.481
-10.473 -10.472 -10.470 -10.468 -10.467 -10.466 -10.464 -10.461
-10.460 -10.460 -10.460 -10.459 -10.459 -10.458 -10.458 -10.458
-10.457 -10.457 -10.457 -10.452 -10.451 -10.444 -10.444 -10.442
-10.442 -10.442 -10.439 -10.437 -10.436 -10.427 -10.424  -1.091
 -1.042  -1.027  -1.025  -1.002  -0.983  -0.962  -0.959  -0.958
 -0.935  -0.927  -0.910  -0.894  -0.886  -0.880  -0.853  -0.849
 -0.848  -0.840  -0.834  -0.818  -0.818  -0.806  -0.790  -0.770
 -0.768  -0.742  -0.725  -0.723  -0.711  -0.706  -0.702  -0.687
 -0.676  -0.672  -0.671  -0.665  -0.663  -0.641  -0.617  -0.612
 -0.610  -0.605  -0.592  -0.580  -0.575  -0.567  -0.561  -0.554
 -0.538  -0.535  -0.532  -0.530  -0.523  -0.522  -0.520  -0.515
 -0.510  -0.504  -0.503  -0.500  -0.497  -0.496  -0.493  -0.490
 -0.488  -0.487  -0.482  -0.480  -0.470  -0.464  -0.457  -0.447
 -0.446  -0.445  -0.442  -0.441  -0.437  -0.436  -0.431  -0.427
 -0.426  -0.423  -0.421  -0.418  -0.417  -0.415  -0.409  -0.408
 -0.407  -0.402  -0.401  -0.400  -0.395  -0.394  -0.390  -0.376
 -0.372  -0.365  -0.343  -0.336  -0.319  -0.309  -0.304  -0.298
 -0.295  -0.289  -0.287  -0.282  -0.265  -0.230

          Ground-State Mulliken Net Atomic Charges

     Atom                 Charge (a.u.)
  ----------------------------------------
      1 N                    -0.689778
      2 C                     0.313902
      3 C                    -0.298691
      4 H                     0.250544
      5 C                    -0.249805
      6 H                     0.229608
      7 C                    -0.236401
      8 H                     0.226504
      9 C                    -0.334130
     10 H                     0.226813
     11 C                     0.157722
     12 C                     0.310920
     13 C                    -0.302994
     14 H                     0.265503
     15 C                    -0.247045
     16 H                     0.231654
     17 C                    -0.238897
     18 H                     0.224595
     19 C                    -0.331213
     20 H                     0.226490
     21 C                     0.145621
     22 C                     0.197840
     23 C                    -0.251301
     24 H                     0.247077
     25 C                    -0.316175
     26 H                     0.234500
     27 C                    -0.282390
     28 H                     0.286311
     29 C                     0.084143
     30 C                     0.190572
     31 C                    -0.543835
     32 H                     0.262283
     33 H                     0.256582
     34 C                    -0.227468
     35 C                    -0.671247
     36 H                     0.233959
     37 H                     0.233728
     38 H                     0.241134
     39 C                    -0.528888
     40 H                     0.260829
     41 H                     0.266607
     42 C                     0.080469
     43 C                    -0.323810
     44 H                     0.266234
     45 C                     0.073706
     46 C                     0.248414
     47 C                    -0.275177
     48 H                     0.291436
     49 C                     0.072970
     50 C                     0.005914
     51 N                    -0.186755
     52 C                     0.004404
     53 N                    -0.187197
     54 C                    -0.433105
     55 C                     0.060803
     56 C                    -0.274302
     57 H                     0.233934
     58 C                    -0.239269
     59 H                     0.242343
     60 C                    -0.226394
     61 H                     0.243568
     62 C                    -0.332695
     63 H                     0.231150
     64 C                     0.152034
     65 C                     0.135145
     66 C                    -0.328752
     67 H                     0.230978
     68 C                    -0.234238
     69 H                     0.242734
     70 C                    -0.238218
     71 H                     0.242190
     72 C                    -0.290622
     73 H                     0.235255
     74 C                     0.141227
     75 C                    -0.603092
     76 H                     0.235248
     77 H                     0.223632
     78 H                     0.224653
  ----------------------------------------
  Sum of atomic charges =     0.000000

                    Cartesian Multipole Moments
 -----------------------------------------------------------------
    Charge (ESU x 10^10)
                 0.0000
    Dipole Moment (Debye)
         X      -5.2573      Y       6.2375      Z       3.0584
       Tot       8.7120
    Quadrupole Moments (Debye-Ang)
        XX    -330.6286     XY      74.5178     YY    -304.6227
        XZ      47.8926     YZ     -42.8616     ZZ    -280.2743

 Total job time:  26865.89s(wall), 99808.71s(cpu)
        *  Thank you very much for using Q-Chem.  Have a nice day.  *
