 Q-Chem 5.1, Q-Chem, Inc., Pleasanton, CA (2018)
 Q-Chem 5.1.1 for Intel X86 EM64T Linux

User input:
--------------------------------------------------------------
$rem
threads 4
jobtype	opt
method PBEh-3c
basis def2-mSVP
mem_static	1024
mem_total	4000
sym_ignore	true
scf_convergence	9
solvent_method	pcm
$end

$molecule
read gsopt.mol
$end

$solvent
dielectric	1.0001
$end

$pcm
theory iefpcm
$end
--------------------------------------------------------------

   17   -1855.5309570702      9.13e-10  Convergence criterion met
 Total energy in the final basis set =    -1855.5309570702
   14   -1855.5313862727      9.00e-10  Convergence criterion met
 Total energy in the final basis set =    -1855.5313862727
   13   -1855.5312973129      6.95e-10  Convergence criterion met
 Total energy in the final basis set =    -1855.5312973129
   13   -1855.5314502362      3.97e-10  Convergence criterion met
 Total energy in the final basis set =    -1855.5314502362
   12   -1855.5314301784      8.22e-10  Convergence criterion met
 Total energy in the final basis set =    -1855.5314301784
   12   -1855.5314203411      7.40e-10  Convergence criterion met
 Total energy in the final basis set =    -1855.5314203411
   11   -1855.5314066576      9.50e-10  Convergence criterion met
 Total energy in the final basis set =    -1855.5314066576
   11   -1855.5313948049      6.29e-10  Convergence criterion met
 Total energy in the final basis set =    -1855.5313948049

             Standard Nuclear Orientation (Angstroms)
    I     Atom           X                Y                Z
 ----------------------------------------------------------------
    1      N      -0.0091357430     0.1020801253    -0.0585591850
    2      C       0.0289138747    -0.0580708866     1.3325141189
    3      C       1.2416171849    -0.1366180696     2.0162556928
    4      H       2.1772330386    -0.0482792847     1.4827561438
    5      C       1.2583953821    -0.3445857441     3.3842095231
    6      H       2.2083365787    -0.4064842018     3.8987194598
    7      C       0.0729483888    -0.4899209206     4.0822098597
    8      H       0.0784927647    -0.6669481423     5.1491553161
    9      C      -1.1297275775    -0.3945469467     3.3997392824
   10      H      -2.0495806033    -0.4959712068     3.9586078156
   11      C      -1.1795357805    -0.1582143024     2.0331247788
   12      C      -1.1128452881    -0.3894022203    -0.7696438324
   13      C      -1.0206340113    -0.7400839569    -2.1179670123
   14      H      -0.1042511884    -0.5974114107    -2.6715701035
   15      C      -2.1070970606    -1.2888843561    -2.7761261124
   16      H      -2.0038486987    -1.5613056684    -3.8184063832
   17      C      -3.2985676429    -1.4979076084    -2.1057981480
   18      H      -4.1468191350    -1.9423464732    -2.6088330223
   19      C      -3.4014881260    -1.1046708653    -0.7810292902
   20      H      -4.3468236207    -1.2414308078    -0.2750415350
   21      C      -2.3376634378    -0.5257444435    -0.1026572380
   22      C       1.2179117287     0.2417549037    -0.7562324332
   23      C       1.7258906581     1.4921888805    -1.0497812544
   24      H       1.2046120146     2.3822408648    -0.7233442995
   25      C       2.9121495018     1.5737667694    -1.7570223952
   26      H       3.3354323510     2.5484351297    -1.9666979073
   27      C       1.8912248185    -0.8902105235    -1.1812027415
   28      H       1.4523451792    -1.8478294571    -0.9360543422
   29      C       3.5789934406     0.4429936517    -2.2209066891
   30      C       3.0500718818    -0.8230643015    -1.9481885022
   31      C       4.8924743934     0.6303576356    -2.9160770417
   32      H       5.1602515805     1.6872460665    -2.8833881295
   33      H       4.8369145355     0.3695018825    -3.9773743382
   34      C      -2.4734003543     0.0848707102     1.2779198050
   35      C      -3.6918493859    -0.4486787193     2.0262415299
   36      H      -3.7943852259     0.0298023635     2.9996078891
   37      H      -4.6105598004    -0.2214958344     1.4861608520
   38      H      -3.6410245661    -1.5277872063     2.1763784976
   39      C       5.9878609269    -0.1944185678    -2.2425290634
   40      H       6.9546850031     0.2908355127    -2.3850460766
   41      H       5.8168825402    -0.2145479346    -1.1625857621
   42      C       6.0677962412    -1.5829564903    -2.8019860773
   43      C       7.3298441871    -2.0420962326    -3.1812702488
   44      H       8.1911997830    -1.4117644210    -3.0027472904
   45      C       7.5216941536    -3.2679594563    -3.7896901360
   46      C       4.9529242439    -2.3947635728    -3.0238128456
   47      C       5.1534864330    -3.6217723276    -3.6611765237
   48      H       4.3071826744    -4.2647628535    -3.8622706804
   49      C       6.4023683367    -4.0678493942    -4.0468181496
   50      C       8.8335371079    -3.6870898811    -4.1565717787
   51      N       9.9002411872    -4.0087272494    -4.4451838927
   52      C       6.5279770206    -5.3329632519    -4.6937280214
   53      N       6.6090513067    -6.3556452359    -5.2151511976
   54      C       3.5006008413    -2.1446153734    -2.5933313089
   55      C       3.1048312366    -3.3235293962    -1.7078329806
   56      C       3.6372452400    -3.6965023711    -0.4907043087
   57      H       4.4480515535    -3.1363608380    -0.0422983987
   58      C       3.1081703449    -4.8070035869     0.1554808640
   59      H       3.5113276710    -5.1126291044     1.1114838421
   60      C       2.0659149445    -5.5306104341    -0.4132565974
   61      H       1.6672200106    -6.3919482260     0.1056664878
   62      C       1.5343846657    -5.1587486957    -1.6382710899
   63      H       0.7219646385    -5.7236534413    -2.0775516462
   64      C       2.0626593918    -4.0508710476    -2.2818324439
   65      C       1.7112502788    -3.4402708921    -3.5572269519
   66      C       0.7389533154    -3.7826134006    -4.4848257393
   67      H       0.0805220878    -4.6254362631    -4.3164924595
   68      C       0.6224096044    -3.0238287237    -5.6393982293
   69      H      -0.1278727770    -3.2783575450    -6.3762961737
   70      C       1.4651461727    -1.9402959539    -5.8614357855
   71      H       1.3642619315    -1.3599778264    -6.7688601392
   72      C       2.4360348017    -1.5955137620    -4.9289181934
   73      H       3.0831675771    -0.7458900246    -5.1065397326
   74      C       2.5521354157    -2.3507148614    -3.7787983513
   75      C      -2.6521153036     1.6062320790     1.0957693098
   76      H      -1.8185316319     2.0475323696     0.5500606823
   77      H      -2.7213318358     2.1033627720     2.0650041795
   78      H      -3.5648167821     1.8145464139     0.5342574365
 ----------------------------------------------------------------

   10   -1855.5313878917      6.24e-10  Convergence criterion met
 Total energy in the final basis set =    -1855.5313878917
 Final energy is   -1855.53138789173
 **  OPTIMIZATION CONVERGED  **

                    Orbital Energies (a.u.)
 --------------------------------------------------------------

 Alpha MOs
 -- Occupied --
-14.681 -14.656 -14.653 -10.521 -10.519 -10.512 -10.506 -10.500
-10.500 -10.497 -10.497 -10.493 -10.492 -10.491 -10.491 -10.487
-10.479 -10.478 -10.475 -10.474 -10.473 -10.472 -10.470 -10.469
-10.468 -10.467 -10.466 -10.466 -10.465 -10.465 -10.465 -10.464
-10.464 -10.463 -10.462 -10.452 -10.451 -10.445 -10.444 -10.443
-10.443 -10.442 -10.440 -10.438 -10.436 -10.431 -10.426  -1.093
 -1.041  -1.029  -1.019  -1.003  -0.988  -0.968  -0.961  -0.958
 -0.938  -0.933  -0.911  -0.898  -0.891  -0.885  -0.858  -0.856
 -0.849  -0.845  -0.835  -0.825  -0.819  -0.809  -0.794  -0.773
 -0.772  -0.747  -0.731  -0.725  -0.715  -0.710  -0.703  -0.691
 -0.682  -0.678  -0.672  -0.672  -0.666  -0.645  -0.619  -0.613
 -0.612  -0.611  -0.596  -0.586  -0.580  -0.573  -0.567  -0.561
 -0.540  -0.539  -0.538  -0.533  -0.528  -0.527  -0.521  -0.521
 -0.517  -0.510  -0.505  -0.504  -0.502  -0.501  -0.498  -0.493
 -0.491  -0.490  -0.487  -0.485  -0.475  -0.470  -0.461  -0.452
 -0.448  -0.445  -0.441  -0.438  -0.437  -0.435  -0.434  -0.429
 -0.427  -0.424  -0.424  -0.422  -0.420  -0.416  -0.414  -0.413
 -0.412  -0.403  -0.400  -0.399  -0.397  -0.395  -0.393  -0.377
 -0.374  -0.366  -0.349  -0.339  -0.321  -0.313  -0.308  -0.302
 -0.299  -0.292  -0.287  -0.282  -0.270  -0.231

          Ground-State Mulliken Net Atomic Charges

     Atom                 Charge (a.u.)
  ----------------------------------------
      1 N                    -0.692085
      2 C                     0.314487
      3 C                    -0.286409
      4 H                     0.239818
      5 C                    -0.234979
      6 H                     0.214424
      7 C                    -0.218766
      8 H                     0.212548
      9 C                    -0.323575
     10 H                     0.212524
     11 C                     0.168029
     12 C                     0.311703
     13 C                    -0.294210
     14 H                     0.258528
     15 C                    -0.233274
     16 H                     0.218485
     17 C                    -0.221454
     18 H                     0.210346
     19 C                    -0.320537
     20 H                     0.212536
     21 C                     0.154779
     22 C                     0.202774
     23 C                    -0.240514
     24 H                     0.234345
     25 C                    -0.303805
     26 H                     0.218005
     27 C                    -0.280067
     28 H                     0.282781
     29 C                     0.086710
     30 C                     0.191269
     31 C                    -0.536735
     32 H                     0.251369
     33 H                     0.248488
     34 C                    -0.233059
     35 C                    -0.663730
     36 H                     0.227598
     37 H                     0.227546
     38 H                     0.239169
     39 C                    -0.523108
     40 H                     0.248630
     41 H                     0.259776
     42 C                     0.081330
     43 C                    -0.321544
     44 H                     0.246969
     45 C                     0.078719
     46 C                     0.246761
     47 C                    -0.273545
     48 H                     0.281205
     49 C                     0.077699
     50 C                    -0.007329
     51 N                    -0.154539
     52 C                    -0.008680
     53 N                    -0.154959
     54 C                    -0.437511
     55 C                     0.063411
     56 C                    -0.262950
     57 H                     0.219612
     58 C                    -0.225459
     59 H                     0.229262
     60 C                    -0.212596
     61 H                     0.230281
     62 C                    -0.321093
     63 H                     0.214565
     64 C                     0.155177
     65 C                     0.138873
     66 C                    -0.317187
     67 H                     0.214571
     68 C                    -0.222341
     69 H                     0.229358
     70 C                    -0.224632
     71 H                     0.228645
     72 C                    -0.277771
     73 H                     0.218877
     74 C                     0.145885
     75 C                    -0.592980
     76 H                     0.233390
     77 H                     0.219530
     78 H                     0.220635
  ----------------------------------------
  Sum of atomic charges =     0.000000

                    Cartesian Multipole Moments
 -----------------------------------------------------------------
    Charge (ESU x 10^10)
                 0.0000
    Dipole Moment (Debye)
         X      -4.8230      Y       5.2459      Z       2.7304
       Tot       7.6313
    Quadrupole Moments (Debye-Ang)
        XX    -324.8106     XY      65.2748     YY    -299.7886
        XZ      43.0136     YZ     -37.5371     ZZ    -278.9826

 Total job time:  16750.27s(wall), 62644.73s(cpu)
        *  Thank you very much for using Q-Chem.  Have a nice day.  *
