 Q-Chem 5.1, Q-Chem, Inc., Pleasanton, CA (2018)
 Q-Chem 5.1.1 for Intel X86 EM64T Linux

User input:
--------------------------------------------------------------
$rem
threads 4
jobtype	opt
method PBEh-3c
basis def2-mSVP
mem_static	1024
mem_total	4000
sym_ignore	true
scf_convergence	9
solvent_method	pcm
$end

$molecule
read gsopt_2.mol
$end

$solvent
dielectric	2.38
$end

$pcm
theory iefpcm
$end
--------------------------------------------------------------

   17   -1855.5459916886      5.15e-10  Convergence criterion met
 Total energy in the final basis set =    -1855.5459916886
   15   -1855.5459223706      9.25e-10  Convergence criterion met
 Total energy in the final basis set =    -1855.5459223706
   15   -1855.5462268648      8.13e-10  Convergence criterion met
 Total energy in the final basis set =    -1855.5462268648
   15   -1855.5460946451      7.46e-10  Convergence criterion met
 Total energy in the final basis set =    -1855.5460946451
   15   -1855.5461138728      7.28e-10  Convergence criterion met
 Total energy in the final basis set =    -1855.5461138728
   15   -1855.5461181884      7.30e-10  Convergence criterion met
 Total energy in the final basis set =    -1855.5461181884
   15   -1855.5461157229      7.44e-10  Convergence criterion met
 Total energy in the final basis set =    -1855.5461157229
   15   -1855.5461260015      7.40e-10  Convergence criterion met
 Total energy in the final basis set =    -1855.5461260015
   15   -1855.5461387185      7.33e-10  Convergence criterion met
 Total energy in the final basis set =    -1855.5461387185
   15   -1855.5461491828      7.33e-10  Convergence criterion met
 Total energy in the final basis set =    -1855.5461491828

             Standard Nuclear Orientation (Angstroms)
    I     Atom           X                Y                Z
 ----------------------------------------------------------------
    1      N       0.0184623279     0.1757519978    -0.0234436426
    2      C       0.0909548820     0.1336278643     1.3748751532
    3      C       1.3156934880     0.2111826376     2.0383759190
    4      H       2.2352238794     0.3258617668     1.4815496217
    5      C       1.3663785972     0.1198725865     3.4187958517
    6      H       2.3251515451     0.1775821429     3.9174687492
    7      C       0.2049672697    -0.0628252167     4.1497760173
    8      H       0.2386352090    -0.1471852176     5.2277223235
    9      C      -1.0106235994    -0.1290425626     3.4849893825
   10      H      -1.9121580639    -0.2597442485     4.0672811371
   11      C      -1.0955803618    -0.0141332778     2.1042896503
   12      C      -1.0285100564    -0.4961532936    -0.6643526618
   13      C      -0.9078407456    -0.9767375526    -1.9693415136
   14      H      -0.0080776883    -0.8077366126    -2.5424207963
   15      C      -1.9377494273    -1.6970616861    -2.5503294169
   16      H      -1.8146183578    -2.0694755435    -3.5591239876
   17      C      -3.0989283060    -1.9529838712    -1.8425563951
   18      H      -3.9005816931    -2.5303212857    -2.2835061486
   19      C      -3.2325599761    -1.4383170160    -0.5619471104
   20      H      -4.1559039011    -1.6167258455    -0.0286955664
   21      C      -2.2285879132    -0.6876162028     0.0349928645
   22      C       1.1983188542     0.4771640490    -0.7512294313
   23      C       2.0485222087    -0.5343925433    -1.1449983974
   24      H       1.7699031673    -1.5453591417    -0.8759497273
   25      C       1.5126417403     1.7904167912    -1.0611414965
   26      H       0.8543979043     2.5953027867    -0.7612381257
   27      C       2.6737407416     2.0404783213    -1.7623802584
   28      H       2.9227887633     3.0633893398    -2.0169174946
   29      C       3.2199733441    -0.3003249299    -1.8688254994
   30      C       3.5371662738     1.0225116759    -2.1805527660
   31      C       4.7285681868     1.4325789959    -2.9946839310
   32      H       4.5944761764     2.4710076421    -3.3001036845
   33      H       5.6426129172     1.4129607431    -2.3941757385
   34      C      -2.4133867672     0.0405607840     1.3518649954
   35      C      -3.5724511704    -0.5268125519     2.1667205058
   36      H      -4.5110550077    -0.4385525859     1.6199262161
   37      H      -3.7110249252     0.0318841943     3.0919539770
   38      H      -3.4218780548    -1.5772288044     2.4194362157
   39      C       4.9163076530     0.5683133447    -4.2373752925
   40      H       5.4372373985     1.1398384580    -5.0061170022
   41      H       3.9412692898     0.3152813355    -4.6615565289
   42      C       5.7144310549    -0.6584342668    -3.9251089534
   43      C       6.9029595507    -0.8435519877    -4.6257419571
   44      H       7.1803127505    -0.1270834101    -5.3879682220
   45      C       7.7404300915    -1.9179024322    -4.3815003678
   46      C       7.3811033592    -2.8315415394    -3.3883047053
   47      C       6.2057343820    -2.6437601633    -2.6809692614
   48      H       5.9544960174    -3.3770257808    -1.9287916176
   49      C       5.3487862037    -1.5702181576    -2.9274644879
   50      C       8.9386224892    -2.0760971367    -5.1366168035
   51      N       9.9013953261    -2.1927421892    -5.7566574388
   52      C       8.2009972084    -3.9621686411    -3.0999904204
   53      N       8.8540169924    -4.8796984218    -2.8623521678
   54      C       4.0028924267    -1.5876021720    -2.1881174589
   55      C       4.1457749547    -2.3443052556    -0.8714057343
   56      C       4.8081541610    -1.9399915040     0.2688739058
   57      H       5.3205403371    -0.9864849481     0.3058368037
   58      C       4.7983400697    -2.7818892211     1.3744079846
   59      H       5.3110189174    -2.4843443095     2.2794160744
   60      C       4.1313424512    -4.0023430145     1.3319889326
   61      H       4.1314742234    -4.6415303623     2.2048244892
   62      C       3.4606623339    -4.4036655266     0.1860501304
   63      H       2.9344956673    -5.3495721891     0.1603169149
   64      C       3.4737246619    -3.5641457318    -0.9176494780
   65      C       2.8439130915    -3.7011362757    -2.2261760839
   66      C       2.0667135070    -4.7236078999    -2.7504387953
   67      H       1.8516211924    -5.6121582859    -2.1700947503
   68      C       1.5625561199    -4.5883550554    -4.0355510579
   69      H       0.9544497413    -5.3762906405    -4.4599245793
   70      C       1.8302480795    -3.4463291972    -4.7821955851
   71      H       1.4285512720    -3.3526262929    -5.7825868573
   72      C       2.6107617551    -2.4227982284    -4.2568551785
   73      H       2.8089837174    -1.5401002464    -4.8512214306
   74      C       3.1151947994    -2.5573908712    -2.9775797239
   75      C      -2.7337359322     1.5147888884     1.0291793278
   76      H      -1.9474556907     1.9810159540     0.4356337295
   77      H      -3.6637446193     1.5817582582     0.4615801097
   78      H      -2.8479701993     2.0900940660     1.9494785649
 ----------------------------------------------------------------

   15   -1855.5461539599      7.46e-10  Convergence criterion met
 Total energy in the final basis set =    -1855.5461539599
 Final energy is   -1855.54615395988
 **  OPTIMIZATION CONVERGED  **

                    Orbital Energies (a.u.)
 --------------------------------------------------------------

 Alpha MOs
 -- Occupied --
-14.679 -14.662 -14.660 -10.521 -10.520 -10.508 -10.507 -10.506
-10.504 -10.496 -10.492 -10.491 -10.491 -10.490 -10.488 -10.482
-10.474 -10.473 -10.469 -10.468 -10.467 -10.466 -10.464 -10.461
-10.460 -10.460 -10.459 -10.459 -10.458 -10.458 -10.458 -10.457
-10.457 -10.457 -10.457 -10.451 -10.451 -10.443 -10.443 -10.443
-10.442 -10.441 -10.440 -10.437 -10.436 -10.427 -10.424  -1.090
 -1.043  -1.028  -1.026  -1.003  -0.983  -0.962  -0.959  -0.958
 -0.935  -0.927  -0.910  -0.894  -0.886  -0.880  -0.852  -0.850
 -0.848  -0.841  -0.834  -0.819  -0.818  -0.805  -0.791  -0.771
 -0.768  -0.743  -0.725  -0.723  -0.711  -0.706  -0.701  -0.687
 -0.675  -0.673  -0.671  -0.665  -0.664  -0.642  -0.617  -0.611
 -0.610  -0.604  -0.595  -0.579  -0.574  -0.568  -0.560  -0.555
 -0.538  -0.535  -0.532  -0.530  -0.524  -0.521  -0.520  -0.518
 -0.509  -0.504  -0.503  -0.501  -0.498  -0.496  -0.494  -0.491
 -0.488  -0.487  -0.481  -0.479  -0.471  -0.464  -0.456  -0.447
 -0.446  -0.444  -0.442  -0.441  -0.436  -0.435  -0.431  -0.429
 -0.426  -0.424  -0.423  -0.418  -0.417  -0.413  -0.412  -0.408
 -0.407  -0.402  -0.401  -0.400  -0.396  -0.394  -0.389  -0.377
 -0.372  -0.363  -0.344  -0.334  -0.320  -0.310  -0.302  -0.299
 -0.296  -0.289  -0.288  -0.282  -0.265  -0.231

          Ground-State Mulliken Net Atomic Charges

     Atom                 Charge (a.u.)
  ----------------------------------------
      1 N                    -0.698671
      2 C                     0.307765
      3 C                    -0.291538
      4 H                     0.253403
      5 C                    -0.250509
      6 H                     0.229200
      7 C                    -0.235345
      8 H                     0.226107
      9 C                    -0.336290
     10 H                     0.226528
     11 C                     0.160856
     12 C                     0.312887
     13 C                    -0.304772
     14 H                     0.260826
     15 C                    -0.245762
     16 H                     0.229803
     17 C                    -0.238126
     18 H                     0.225218
     19 C                    -0.332364
     20 H                     0.227023
     21 C                     0.144544
     22 C                     0.204222
     23 C                    -0.274960
     24 H                     0.288762
     25 C                    -0.250599
     26 H                     0.246551
     27 C                    -0.314291
     28 H                     0.234470
     29 C                     0.239060
     30 C                     0.047109
     31 C                    -0.522199
     32 H                     0.257852
     33 H                     0.258022
     34 C                    -0.223806
     35 C                    -0.672425
     36 H                     0.233777
     37 H                     0.234172
     38 H                     0.241113
     39 C                    -0.551007
     40 H                     0.265287
     41 H                     0.267199
     42 C                     0.105950
     43 C                    -0.324455
     44 H                     0.265411
     45 C                     0.074149
     46 C                     0.088866
     47 C                    -0.297662
     48 H                     0.293232
     49 C                     0.213025
     50 C                     0.005961
     51 N                    -0.185821
     52 C                     0.004460
     53 N                    -0.186521
     54 C                    -0.434074
     55 C                     0.027773
     56 C                    -0.269413
     57 H                     0.236903
     58 C                    -0.242642
     59 H                     0.241714
     60 C                    -0.223971
     61 H                     0.243576
     62 C                    -0.335776
     63 H                     0.231874
     64 C                     0.158743
     65 C                     0.131928
     66 C                    -0.326798
     67 H                     0.230224
     68 C                    -0.230523
     69 H                     0.242794
     70 C                    -0.235575
     71 H                     0.241274
     72 C                    -0.296344
     73 H                     0.233241
     74 C                     0.159870
     75 C                    -0.603424
     76 H                     0.234875
     77 H                     0.224435
     78 H                     0.223626
  ----------------------------------------
  Sum of atomic charges =     0.000000

                    Cartesian Multipole Moments
 -----------------------------------------------------------------
    Charge (ESU x 10^10)
                 0.0000
    Dipole Moment (Debye)
         X      -7.0501      Y       4.6063      Z       1.4559
       Tot       8.5464
    Quadrupole Moments (Debye-Ang)
        XX    -371.4802     XY      62.9668     YY    -277.3277
        XZ      43.4329     YZ     -24.7097     ZZ    -264.5688

 Total job time:  15636.13s(wall), 59079.24s(cpu)
        *  Thank you very much for using Q-Chem.  Have a nice day.  *
