                         Program Version 4.0.1 -  RELEASE  -
|  1> %maxcore 1700
|  2> %pal nprocs 4 end
|  3> !PBEh-3c RIJCOSX
|  4>
|  5> *xyzfile 0 1 gsopt.xyz
|  6>
|  7>
|  8>                          ****END OF INPUT****

CARTESIAN COORDINATES (ANGSTROEM)
---------------------------------
  C      2.638882   -1.542737    0.386447
  C      3.596329   -1.235264   -0.608885
  B      4.559608   -2.352038   -1.108588
  C      4.634429   -3.705522   -0.344848
  C      3.665994   -4.016909    0.635870
  B      2.574725   -2.972159    1.004903
  C      5.575904   -4.667505   -0.722109
  C      5.552448   -5.920248   -0.141779
  C      4.559569   -6.244359    0.809356
  C      3.629431   -5.298745    1.193535
  C      1.675587   -0.592710    0.735915
  C      1.666534    0.642500    0.118115
  C      2.635461    0.960536   -0.859411
  C      3.581078    0.020276   -1.224984
  C      7.390331   -7.442556   -1.225632
  C      7.862992   -8.776263   -1.235515
  C      7.303606   -9.763195   -0.458905
  C      6.215762   -9.462224    0.394831
  C      5.789242   -8.138233    0.400371
  C      6.346533   -7.123174   -0.398228
  C      5.485739  -10.357722    1.212693
  C      4.415177   -9.903668    1.945940
  C      4.000068   -8.550856    1.925392
  C      4.696889   -7.662461    1.148936
  C      2.173973    4.303780   -2.675048
  C      2.837078    3.089773   -2.375444
  C      2.317277    2.285600   -1.396538
  C      1.147420    2.706380   -0.735987
  C      0.456236    3.876192   -1.028507
  C      1.020148    4.694056   -2.036862
  C      0.711913    1.745444    0.194240
  C     -0.460049    1.963796    0.867862
  C     -1.179152    3.152151    0.600560
  C     -0.747803    4.084370   -0.313580
  C      7.243714   -1.388791   -3.739942
  C      6.552483   -1.492256   -2.532474
  C      5.351577   -2.197117   -2.454137
  C      4.851874   -2.807286   -3.620712
  C      5.541527   -2.693154   -4.813869
  C      6.738252   -1.985320   -4.885435
  C      7.173529   -0.888611   -1.299264
  C      3.534570   -3.543488   -3.620098
  O      7.324353   -1.937784   -6.100066
  C      8.525270   -1.228586   -6.237347
  C      0.432495   -3.829754    4.115275
  C      1.501301   -3.437551    3.327850
  C      1.375574   -3.389608    1.929988
  C      0.155575   -3.758155    1.356921
  C     -0.915746   -4.150218    2.157879
  C     -0.783392   -4.185239    3.538198
  C      2.776914   -3.000714    3.998890
  C     -0.020258   -3.816047   -0.140522
  O     -1.765591   -4.547122    4.390319
  C     -3.014712   -4.899130    3.859511
  H      6.292958   -4.441423   -1.503332
  H      2.847948   -5.554307    1.900653
  H      0.911251   -0.848728    1.461613
  H      4.285644    0.231648   -2.021902
  H      7.849219   -6.709073   -1.876518
  H      8.686940   -9.027668   -1.890509
  H      7.687345  -10.774815   -0.511891
  H      5.760778  -11.404778    1.250934
  H      3.861152  -10.604837    2.556476
  H      3.138924   -8.249208    2.508582
  H      2.584498    4.937630   -3.450091
  H      3.724206    2.813104   -2.931285
  H      0.536535    5.621858   -2.316700
  H     -0.852273    1.248146    1.579882
  H     -2.108015    3.324599    1.128435
  H     -1.339262    4.973292   -0.495452
  H      8.175512   -0.836657   -3.756803
  H      5.154012   -3.155771   -5.714710
  H      7.703864    0.029477   -1.565932
  C      8.141551   -1.848278   -0.610044
  H      6.397296   -0.589362   -0.589488
  H      3.552032   -4.313958   -4.395066
  C      2.341915   -2.619501   -3.860671
  H      3.393614   -4.079331   -2.677954
  H      8.817653   -1.310037   -7.282263
  H      9.328095   -1.644623   -5.619619
  H      8.412608   -0.167657   -5.990392
  H      0.529477   -3.860527    5.194572
  H     -1.845934   -4.427137    1.676024
  H      3.641930   -3.267569    3.385204
  H      2.900148   -3.543420    4.939456
  C      2.796743   -1.499532    4.276789
  H      0.652448   -3.110811   -0.635499
  H     -1.030468   -3.491506   -0.405136
  C      0.222931   -5.216674   -0.700245
  H     -3.654560   -5.144098    4.704813
  H     -3.476769   -4.077643    3.301811
  H     -2.957819   -5.773781    3.203041
  H      2.428710   -2.108631   -4.820036
  H      2.263106   -1.856122   -3.086493
  H      1.408901   -3.185102   -3.864652
  H      1.233285   -5.560824   -0.477713
  H      0.097372   -5.231457   -1.783801
  H     -0.473006   -5.939374   -0.272827
  H      2.740683   -0.924454    3.352585
  H      3.713135   -1.208816    4.791400
  H      1.952017   -1.207220    4.901148
  H      8.933558   -2.164055   -1.290251
  H      7.628335   -2.744805   -0.262384
  H      8.609801   -1.379925    0.256305

 Total Charge           Charge          ....    0
 Multiplicity           Mult            ....    1
 Number of Electrons    NEL             ....  396
 Basis Dimension        Dim             ....  962

ORBITAL ENERGIES
----------------

  NO   OCC          E(Eh)            E(eV)
   0   2.0000     -19.522886      -531.2447
   1   2.0000     -19.522759      -531.2413
   2   2.0000     -10.499118      -285.6955
   3   2.0000     -10.499060      -285.6939
   4   2.0000     -10.489010      -285.4205
   5   2.0000     -10.488767      -285.4139
   6   2.0000     -10.462480      -284.6986
   7   2.0000     -10.462346      -284.6949
   8   2.0000     -10.461944      -284.6840
   9   2.0000     -10.461901      -284.6828
  10   2.0000     -10.461704      -284.6774
  11   2.0000     -10.461692      -284.6771
  12   2.0000     -10.460107      -284.6340
  13   2.0000     -10.460049      -284.6324
  14   2.0000     -10.459911      -284.6286
  15   2.0000     -10.459537      -284.6185
  16   2.0000     -10.459402      -284.6148
  17   2.0000     -10.459389      -284.6144
  18   2.0000     -10.458872      -284.6004
  19   2.0000     -10.458814      -284.5988
  20   2.0000     -10.458695      -284.5955
  21   2.0000     -10.458023      -284.5773
  22   2.0000     -10.457919      -284.5744
  23   2.0000     -10.457772      -284.5704
  24   2.0000     -10.457694      -284.5683
  25   2.0000     -10.457627      -284.5665
  26   2.0000     -10.457117      -284.5526
  27   2.0000     -10.457112      -284.5525
  28   2.0000     -10.450396      -284.3697
  29   2.0000     -10.449225      -284.3379
  30   2.0000     -10.448964      -284.3308
  31   2.0000     -10.448846      -284.3276
  32   2.0000     -10.448000      -284.3045
  33   2.0000     -10.447704      -284.2965
  34   2.0000     -10.446315      -284.2587
  35   2.0000     -10.446161      -284.2545
  36   2.0000     -10.444067      -284.1975
  37   2.0000     -10.443643      -284.1860
  38   2.0000     -10.434504      -283.9373
  39   2.0000     -10.432446      -283.8813
  40   2.0000     -10.431836      -283.8647
  41   2.0000     -10.431051      -283.8433
  42   2.0000     -10.430860      -283.8381
  43   2.0000     -10.430609      -283.8313
  44   2.0000     -10.430097      -283.8174
  45   2.0000     -10.429762      -283.8083
  46   2.0000     -10.429205      -283.7931
  47   2.0000     -10.428957      -283.7863
  48   2.0000     -10.426724      -283.7256
  49   2.0000     -10.426134      -283.7095
  50   2.0000     -10.420675      -283.5610
  51   2.0000     -10.418678      -283.5066
  52   2.0000     -10.416622      -283.4507
  53   2.0000     -10.415497      -283.4201
  54   2.0000     -10.414028      -283.3801
  55   2.0000     -10.413660      -283.3701
  56   2.0000      -6.945218      -188.9890
  57   2.0000      -6.944915      -188.9807
  58   2.0000      -1.180679       -32.1279
  59   2.0000      -1.180318       -32.1181
  60   2.0000      -1.013318       -27.5738
  61   2.0000      -1.012615       -27.5547
  62   2.0000      -0.960032       -26.1238
  63   2.0000      -0.956310       -26.0225
  64   2.0000      -0.952383       -25.9156
  65   2.0000      -0.951133       -25.8817
  66   2.0000      -0.931062       -25.3355
  67   2.0000      -0.930367       -25.3166
  68   2.0000      -0.905929       -24.6516
  69   2.0000      -0.897648       -24.4263
  70   2.0000      -0.885742       -24.1023
  71   2.0000      -0.885463       -24.0947
  72   2.0000      -0.863952       -23.5093
  73   2.0000      -0.861575       -23.4446
  74   2.0000      -0.851021       -23.1575
  75   2.0000      -0.850567       -23.1451
  76   2.0000      -0.844641       -22.9839
  77   2.0000      -0.843812       -22.9613
  78   2.0000      -0.821466       -22.3532
  79   2.0000      -0.819363       -22.2960
  80   2.0000      -0.816383       -22.2149
  81   2.0000      -0.810849       -22.0643
  82   2.0000      -0.809386       -22.0245
  83   2.0000      -0.801716       -21.8158
  84   2.0000      -0.798321       -21.7234
  85   2.0000      -0.798165       -21.7192
  86   2.0000      -0.773011       -21.0347
  87   2.0000      -0.772269       -21.0145
  88   2.0000      -0.731886       -19.9156
  89   2.0000      -0.726191       -19.7607
  90   2.0000      -0.724118       -19.7042
  91   2.0000      -0.717725       -19.5303
  92   2.0000      -0.709022       -19.2935
  93   2.0000      -0.708526       -19.2800
  94   2.0000      -0.700418       -19.0593
  95   2.0000      -0.699879       -19.0447
  96   2.0000      -0.686527       -18.6813
  97   2.0000      -0.677844       -18.4451
  98   2.0000      -0.676873       -18.4186
  99   2.0000      -0.661931       -18.0121
 100   2.0000      -0.655406       -17.8345
 101   2.0000      -0.644865       -17.5477
 102   2.0000      -0.644135       -17.5278
 103   2.0000      -0.643194       -17.5022
 104   2.0000      -0.628238       -17.0952
 105   2.0000      -0.627809       -17.0835
 106   2.0000      -0.592297       -16.1172
 107   2.0000      -0.590055       -16.0562
 108   2.0000      -0.589951       -16.0534
 109   2.0000      -0.585901       -15.9432
 110   2.0000      -0.582199       -15.8424
 111   2.0000      -0.582153       -15.8412
 112   2.0000      -0.580786       -15.8040
 113   2.0000      -0.572763       -15.5857
 114   2.0000      -0.571740       -15.5578
 115   2.0000      -0.560704       -15.2575
 116   2.0000      -0.560122       -15.2417
 117   2.0000      -0.541698       -14.7404
 118   2.0000      -0.540715       -14.7136
 119   2.0000      -0.534420       -14.5423
 120   2.0000      -0.533623       -14.5206
 121   2.0000      -0.533284       -14.5114
 122   2.0000      -0.525461       -14.2985
 123   2.0000      -0.521477       -14.1901
 124   2.0000      -0.510449       -13.8900
 125   2.0000      -0.504576       -13.7302
 126   2.0000      -0.502472       -13.6730
 127   2.0000      -0.501401       -13.6438
 128   2.0000      -0.499817       -13.6007
 129   2.0000      -0.498945       -13.5770
 130   2.0000      -0.497455       -13.5364
 131   2.0000      -0.492537       -13.4026
 132   2.0000      -0.491559       -13.3760
 133   2.0000      -0.487292       -13.2599
 134   2.0000      -0.486855       -13.2480
 135   2.0000      -0.481990       -13.1156
 136   2.0000      -0.481490       -13.1020
 137   2.0000      -0.480703       -13.0806
 138   2.0000      -0.479957       -13.0603
 139   2.0000      -0.479143       -13.0381
 140   2.0000      -0.478894       -13.0314
 141   2.0000      -0.476940       -12.9782
 142   2.0000      -0.475091       -12.9279
 143   2.0000      -0.465432       -12.6651
 144   2.0000      -0.461687       -12.5631
 145   2.0000      -0.458226       -12.4690
 146   2.0000      -0.457068       -12.4375
 147   2.0000      -0.453546       -12.3416
 148   2.0000      -0.451724       -12.2920
 149   2.0000      -0.449589       -12.2339
 150   2.0000      -0.439656       -11.9636
 151   2.0000      -0.438241       -11.9251
 152   2.0000      -0.433340       -11.7918
 153   2.0000      -0.432576       -11.7710
 154   2.0000      -0.429279       -11.6813
 155   2.0000      -0.427162       -11.6237
 156   2.0000      -0.426431       -11.6038
 157   2.0000      -0.423132       -11.5140
 158   2.0000      -0.421909       -11.4807
 159   2.0000      -0.415887       -11.3169
 160   2.0000      -0.410794       -11.1783
 161   2.0000      -0.410063       -11.1584
 162   2.0000      -0.407012       -11.0754
 163   2.0000      -0.404951       -11.0193
 164   2.0000      -0.398265       -10.8373
 165   2.0000      -0.397978       -10.8295
 166   2.0000      -0.396204       -10.7812
 167   2.0000      -0.392702       -10.6860
 168   2.0000      -0.391962       -10.6658
 169   2.0000      -0.391828       -10.6622
 170   2.0000      -0.390345       -10.6218
 171   2.0000      -0.388519       -10.5721
 172   2.0000      -0.388184       -10.5630
 173   2.0000      -0.384721       -10.4688
 174   2.0000      -0.379450       -10.3254
 175   2.0000      -0.378969       -10.3123
 176   2.0000      -0.374950       -10.2029
 177   2.0000      -0.368794       -10.0354
 178   2.0000      -0.360951        -9.8220
 179   2.0000      -0.359548        -9.7838
 180   2.0000      -0.356554        -9.7023
 181   2.0000      -0.353177        -9.6104
 182   2.0000      -0.351713        -9.5706
 183   2.0000      -0.346138        -9.4189
 184   2.0000      -0.336340        -9.1523
 185   2.0000      -0.334687        -9.1073
 186   2.0000      -0.313838        -8.5400
 187   2.0000      -0.309057        -8.4099
 188   2.0000      -0.292685        -7.9644
 189   2.0000      -0.291664        -7.9366
 190   2.0000      -0.277209        -7.5432
 191   2.0000      -0.272143        -7.4054
 192   2.0000      -0.271813        -7.3964
 193   2.0000      -0.258752        -7.0410
 194   2.0000      -0.253365        -6.8944
 195   2.0000      -0.252685        -6.8759
 196   2.0000      -0.247731        -6.7411
 197   2.0000      -0.244950        -6.6654
 198   0.0000      -0.086724        -2.3599
 199   0.0000      -0.055561        -1.5119
 200   0.0000      -0.033611        -0.9146
 201   0.0000      -0.026132        -0.7111
 202   0.0000      -0.001828        -0.0497

MULLIKEN ATOMIC CHARGES
-----------------------
   0 C :   -0.153200
   1 C :   -0.155953
   2 B :    0.644814
   3 C :   -0.148972
   4 C :   -0.155750
   5 B :    0.653447
   6 C :   -0.387775
   7 C :    0.097993
   8 C :    0.094465
   9 C :   -0.388194
  10 C :   -0.387313
  11 C :    0.091662
  12 C :    0.100257
  13 C :   -0.386776
  14 C :   -0.381954
  15 C :   -0.203293
  16 C :   -0.333928
  17 C :    0.248824
  18 C :   -0.060319
  19 C :    0.193931
  20 C :   -0.333245
  21 C :   -0.203580
  22 C :   -0.381905
  23 C :    0.194770
  24 C :   -0.203018
  25 C :   -0.380930
  26 C :    0.191496
  27 C :   -0.059276
  28 C :    0.249721
  29 C :   -0.334206
  30 C :    0.191718
  31 C :   -0.378146
  32 C :   -0.204679
  33 C :   -0.332863
  34 C :   -0.423627
  35 C :    0.096835
  36 C :   -0.222126
  37 C :    0.077448
  38 C :   -0.381221
  39 C :    0.403821
  40 C :   -0.545453
  41 C :   -0.553722
  42 O :   -0.453206
  43 C :   -0.405304
  44 C :   -0.376801
  45 C :    0.097227
  46 C :   -0.229697
  47 C :    0.075150
  48 C :   -0.427698
  49 C :    0.403687
  50 C :   -0.546991
  51 C :   -0.557390
  52 O :   -0.453844
  53 C :   -0.405892
  54 H :    0.236341
  55 H :    0.236227
  56 H :    0.236636
  57 H :    0.230814
  58 H :    0.220078
  59 H :    0.225178
  60 H :    0.218797
  61 H :    0.218948
  62 H :    0.225495
  63 H :    0.220751
  64 H :    0.224882
  65 H :    0.218921
  66 H :    0.219132
  67 H :    0.220021
  68 H :    0.225378
  69 H :    0.218943
  70 H :    0.220872
  71 H :    0.220001
  72 H :    0.224932
  73 C :   -0.642508
  74 H :    0.249431
  75 H :    0.231776
  76 C :   -0.645913
  77 H :    0.260500
  78 H :    0.239034
  79 H :    0.202477
  80 H :    0.203025
  81 H :    0.219306
  82 H :    0.221737
  83 H :    0.249882
  84 H :    0.228884
  85 C :   -0.644704
  86 H :    0.262403
  87 H :    0.228109
  88 C :   -0.640659
  89 H :    0.239010
  90 H :    0.203309
  91 H :    0.203187
  92 H :    0.219850
  93 H :    0.245016
  94 H :    0.214199
  95 H :    0.242584
  96 H :    0.216471
  97 H :    0.213142
  98 H :    0.240740
  99 H :    0.218322
 100 H :    0.217372
 101 H :    0.213340
 102 H :    0.239723
 103 H :    0.219595
Sum of atomic charges:   -0.0000000

LOEWDIN ATOMIC CHARGES
----------------------
   0 C :   -0.088105
   1 C :   -0.087655
   2 B :    0.076040
   3 C :   -0.085937
   4 C :   -0.088402
   5 B :    0.074764
   6 C :   -0.086536
   7 C :   -0.014384
   8 C :   -0.016379
   9 C :   -0.084924
  10 C :   -0.085691
  11 C :   -0.015687
  12 C :   -0.015444
  13 C :   -0.085062
  14 C :   -0.107229
  15 C :   -0.130661
  16 C :   -0.112270
  17 C :   -0.036851
  18 C :   -0.019751
  19 C :   -0.022392
  20 C :   -0.112624
  21 C :   -0.130676
  22 C :   -0.107652
  23 C :   -0.022139
  24 C :   -0.130752
  25 C :   -0.107494
  26 C :   -0.022089
  27 C :   -0.019729
  28 C :   -0.036900
  29 C :   -0.112104
  30 C :   -0.022247
  31 C :   -0.107452
  32 C :   -0.130511
  33 C :   -0.112481
  34 C :   -0.202534
  35 C :   -0.025038
  36 C :   -0.123755
  37 C :   -0.014991
  38 C :   -0.164729
  39 C :    0.067593
  40 C :   -0.228970
  41 C :   -0.229744
  42 O :   -0.170895
  43 C :   -0.183033
  44 C :   -0.167450
  45 C :   -0.022872
  46 C :   -0.126015
  47 C :   -0.017180
  48 C :   -0.200350
  49 C :    0.067474
  50 C :   -0.228728
  51 C :   -0.228742
  52 O :   -0.171587
  53 C :   -0.183016
  54 H :    0.150517
  55 H :    0.151232
  56 H :    0.150812
  57 H :    0.149527
  58 H :    0.142585
  59 H :    0.139055
  60 H :    0.139442
  61 H :    0.139464
  62 H :    0.139133
  63 H :    0.142799
  64 H :    0.139013
  65 H :    0.142204
  66 H :    0.139441
  67 H :    0.142706
  68 H :    0.139090
  69 H :    0.139364
  70 H :    0.136294
  71 H :    0.142159
  72 H :    0.127868
  73 C :   -0.353838
  74 H :    0.140812
  75 H :    0.130429
  76 C :   -0.354076
  77 H :    0.143172
  78 H :    0.129572
  79 H :    0.111331
  80 H :    0.111748
  81 H :    0.141936
  82 H :    0.136700
  83 H :    0.140653
  84 H :    0.129635
  85 C :   -0.353439
  86 H :    0.143413
  87 H :    0.129384
  88 C :   -0.353530
  89 H :    0.129467
  90 H :    0.111888
  91 H :    0.111663
  92 H :    0.127100
  93 H :    0.135843
  94 H :    0.124128
  95 H :    0.135001
  96 H :    0.125128
  97 H :    0.124193
  98 H :    0.133971
  99 H :    0.126098
 100 H :    0.126407
 101 H :    0.124514
 102 H :    0.133426
 103 H :    0.126540

  Mayer bond orders larger than 0.1
B(  0-C ,  1-C ) :   1.3546 B(  0-C ,  5-B ) :   0.9122 B(  0-C , 10-C ) :   1.4013
B(  1-C ,  2-B ) :   0.9113 B(  1-C , 13-C ) :   1.3983 B(  2-B ,  3-C ) :   0.9194
B(  2-B , 36-C ) :   0.8523 B(  3-C ,  4-C ) :   1.3512 B(  3-C ,  6-C ) :   1.3972
B(  4-C ,  5-B ) :   0.9117 B(  4-C ,  9-C ) :   1.3974 B(  5-B , 46-C ) :   0.8455
B(  6-C ,  7-C ) :   1.3412 B(  6-C , 54-H ) :   0.9156 B(  7-C ,  8-C ) :   1.3433
B(  7-C , 19-C ) :   0.9709 B(  8-C ,  9-C ) :   1.3373 B(  8-C , 23-C ) :   0.9717
B(  9-C , 55-H ) :   0.9166 B( 10-C , 11-C ) :   1.3389 B( 10-C , 56-H ) :   0.9152
B( 11-C , 12-C ) :   1.3418 B( 11-C , 30-C ) :   0.9780 B( 12-C , 13-C ) :   1.3378
B( 12-C , 26-C ) :   0.9707 B( 13-C , 57-H ) :   0.9200 B( 14-C , 15-C ) :   1.3106
B( 14-C , 19-C ) :   1.4033 B( 14-C , 58-H ) :   0.9307 B( 15-C , 16-C ) :   1.5466
B( 15-C , 59-H ) :   0.9187 B( 16-C , 17-C ) :   1.1881 B( 16-C , 60-H ) :   0.9268
B( 17-C , 18-C ) :   1.2318 B( 17-C , 20-C ) :   1.1886 B( 18-C , 19-C ) :   1.2231
B( 18-C , 23-C ) :   1.2226 B( 20-C , 21-C ) :   1.5469 B( 20-C , 61-H ) :   0.9267
B( 21-C , 22-C ) :   1.3100 B( 21-C , 62-H ) :   0.9186 B( 22-C , 23-C ) :   1.4043
B( 22-C , 63-H ) :   0.9303 B( 24-C , 25-C ) :   1.3096 B( 24-C , 29-C ) :   1.5481
B( 24-C , 64-H ) :   0.9187 B( 25-C , 26-C ) :   1.4055 B( 25-C , 65-H ) :   0.9310
B( 26-C , 27-C ) :   1.2224 B( 27-C , 28-C ) :   1.2329 B( 27-C , 30-C ) :   1.2229
B( 28-C , 29-C ) :   1.1867 B( 28-C , 33-C ) :   1.1875 B( 29-C , 66-H ) :   0.9268
B( 30-C , 31-C ) :   1.4052 B( 31-C , 32-C ) :   1.3101 B( 31-C , 67-H ) :   0.9305
B( 32-C , 33-C ) :   1.5470 B( 32-C , 68-H ) :   0.9186 B( 33-C , 69-H ) :   0.9270
B( 34-C , 35-C ) :   1.3684 B( 34-C , 39-C ) :   1.3489 B( 34-C , 70-H ) :   0.9083
B( 35-C , 36-C ) :   1.4402 B( 35-C , 40-C ) :   0.9720 B( 36-C , 37-C ) :   1.3817
B( 37-C , 38-C ) :   1.4523 B( 37-C , 41-C ) :   0.9652 B( 38-C , 39-C ) :   1.3507
B( 38-C , 71-H ) :   0.9137 B( 39-C , 42-O ) :   1.0360 B( 40-C , 72-H ) :   0.9218
B( 40-C , 73-C ) :   0.9758 B( 40-C , 74-H ) :   0.8960 B( 41-C , 75-H ) :   0.9214
B( 41-C , 76-C ) :   0.9744 B( 41-C , 77-H ) :   0.8885 B( 42-O , 43-C ) :   0.9601
B( 43-C , 78-H ) :   0.9232 B( 43-C , 79-H ) :   0.9079 B( 43-C , 80-H ) :   0.9080
B( 44-C , 45-C ) :   1.4367 B( 44-C , 49-C ) :   1.3566 B( 44-C , 81-H ) :   0.9148
B( 45-C , 46-C ) :   1.3824 B( 45-C , 50-C ) :   0.9672 B( 46-C , 47-C ) :   1.4435
B( 47-C , 48-C ) :   1.3815 B( 47-C , 51-C ) :   0.9708 B( 48-C , 49-C ) :   1.3427
B( 48-C , 82-H ) :   0.9075 B( 49-C , 52-O ) :   1.0353 B( 50-C , 83-H ) :   0.8960
B( 50-C , 84-H ) :   0.9220 B( 50-C , 85-C ) :   0.9755 B( 51-C , 86-H ) :   0.8856
B( 51-C , 87-H ) :   0.9200 B( 51-C , 88-C ) :   0.9747 B( 52-O , 53-C ) :   0.9601
B( 53-C , 89-H ) :   0.9231 B( 53-C , 90-H ) :   0.9077 B( 53-C , 91-H ) :   0.9076
B( 73-C ,101-H ) :   0.9287 B( 73-C ,102-H ) :   0.9112 B( 73-C ,103-H ) :   0.9267
B( 76-C , 92-H ) :   0.9270 B( 76-C , 93-H ) :   0.9093 B( 76-C , 94-H ) :   0.9272
B( 85-C , 98-H ) :   0.9098 B( 85-C , 99-H ) :   0.9273 B( 85-C ,100-H ) :   0.9277
B( 88-C , 95-H ) :   0.9127 B( 88-C , 96-H ) :   0.9268 B( 88-C , 97-H ) :   0.9282

Dispersion correction           -0.096238757
FINAL SINGLE POINT ENERGY     -2280.713178511481

DIPOLE MOMENT
-------------
                                X             Y             Z
Electronic contribution:      3.48251       1.63459       4.83630
Nuclear contribution   :     -3.66857      -1.60827      -5.32930
                        -----------------------------------------
Total Dipole Moment    :     -0.18606       0.02632      -0.49300
                        -----------------------------------------
Magnitude (a.u.)       :      0.52760
Magnitude (Debye)      :      1.34105

                             ****ORCA TERMINATED NORMALLY****
TOTAL RUN TIME: 0 days 0 hours 20 minutes 5 seconds 65 msec
