 Q-Chem 5.1, Q-Chem, Inc., Pleasanton, CA (2018)
 Q-Chem 5.1.1 for Intel X86 EM64T Linux

User input:
--------------------------------------------------------------
$solvent
dielectric      2.75000000000000000000
dielectric_infi 2.25
$end

$rem
threads 8
jobtype	sp
method PBEh-3c
basis def2-mSVP
mem_static	1024
mem_total	14000
sym_ignore	true
cis_n_roots             2
cis_singlets            true
cis_triplets		false
rpa                     false
calc_soc 		true
cis_moments             true
cis_relaxed_density	true
solvent_method		pcm
$end

$pcm
StateSpecific   1
ChargeSeparation Excited
$end

$molecule
read moms1opt_275.mol
$end

--------------------------------------------------------------

   15   -1855.5407185330      5.89e-09  Convergence criterion met
 Total energy in the final basis set =    -1855.5407185330
 Total job time:  4404.62s(wall), 18397.54s(cpu)
        *  Thank you very much for using Q-Chem.  Have a nice day.  *
 Q-Chem 5.1, Q-Chem, Inc., Pleasanton, CA (2018)
 Q-Chem 5.1.1 for Intel X86 EM64T Linux

User input:
--------------------------------------------------------------
$rem
threads 8
jobtype sp
method PBEh-3c
basis def2-mSVP
mem_static      1024
mem_total       14000
sym_ignore      true
cis_n_roots             6
cis_singlets            true
cis_triplets            true
rpa                     false
calc_soc                true
cis_moments             true
cis_relaxed_density     true
solvent_method          pcm
$end

$molecule
read
$end

$pcm
statespecific           Marcus
$end

$solvent
dielectric      2.75000000000000000000
dielectric_infi 2.25
$end

--------------------------------------------------------------

             Standard Nuclear Orientation (Angstroms)
    I     Atom           X                Y                Z
 ----------------------------------------------------------------
    1      N       0.0000000000     0.0000000000     0.0000000000
    2      C       0.0000000000     0.0000000000     1.3787970000
    3      C       1.1612709561     0.0000000000    -0.7451701077
    4      C       2.4045267895     0.1912572282    -0.1172602951
    5      C       3.5295127389     0.2416809252    -0.9276518672
    6      H       4.4995340255     0.4203497566    -0.4845621005
    7      C       3.4468792747     0.0734851651    -2.3004391035
    8      H       4.3452829907     0.1174086709    -2.9007128066
    9      C       2.2138755422    -0.1637044263    -2.9038975898
   10      H       2.1460977518    -0.3236517519    -3.9707551851
   11      C       1.0758892556    -0.1993710432    -2.1377262928
   12      H       0.1224546447    -0.3971249368    -2.6047199186
   13      C       1.2154239606     0.1338753643     2.0777649551
   14      C       1.1640441493     0.1209604386     3.4636467275
   15      H       2.0755374080     0.2435108680     4.0315582840
   16      C      -0.0298121220    -0.0282856438     4.1507833027
   17      H      -0.0288040424    -0.0404457778     5.2321234620
   18      C      -1.2263975395    -0.1467913491     3.4489603270
   19      H      -2.1663194283    -0.2572056791     3.9712544263
   20      C      -1.2201706717    -0.1194747240     2.0774864753
   21      H      -2.1606734787    -0.2029032970     1.5541786344
   22      C      -1.2507601785     0.0802967684    -0.6995310633
   23      C      -2.0961148424    -1.0056188846    -0.7417475408
   24      H      -1.7894943028    -1.9259446988    -0.2606293327
   25      C      -1.5974122710     1.2822087883    -1.2983201469
   26      H      -0.9419694374     2.1421323507    -1.2530851576
   27      C      -2.7977273817     1.3361768272    -1.9709307372
   28      H      -3.0699730076     2.2528773006    -2.4791134053
   29      C      -3.3502650850    -0.9277244322    -1.3554237925
   30      C      -3.6820617823     0.2530670319    -2.0258285811
   31      C      -4.9047464179     0.4037425916    -2.8832905877
   32      H      -4.7713483438     1.2885630995    -3.5085674430
   33      H      -5.7927807805     0.5919631749    -2.2738361704
   34      C       2.5225814142     0.3953850366     1.3713404700
   35      C      -5.1431957977    -0.8302134635    -3.7586301739
   36      H      -5.6534990595    -0.5333666020    -4.6763689834
   37      H      -4.1719844955    -1.2330065286    -4.0718948594
   38      C      -5.9866215304    -1.8297866208    -3.0325280535
   39      C      -7.1695341068    -2.2298095553    -3.5901716129
   40      H      -7.4060011556    -1.9021761607    -4.5969045503
   41      C      -8.1265019241    -3.0139998279    -2.9112637964
   42      C      -9.3092834511    -3.3967575910    -3.5477908972
   43      N     -10.2928004318    -3.7062482796    -4.0878543320
   44      C      -5.6672688372    -2.2165300184    -1.6802790006
   45      C      -6.6126122498    -2.9513088944    -0.9898437177
   46      H      -6.4134196330    -3.2678080717     0.0257479606
   47      C      -7.8352259113    -3.3485780347    -1.5369150689
   48      C      -8.7441535680    -4.0640375037    -0.7396346430
   49      N      -9.4906088294    -4.6569681029    -0.0773172670
   50      C      -4.2568957164    -2.1438008285    -1.0989207804
   51      C      -4.2962223996    -2.2886513682     0.4152100666
   52      C      -4.8223059864    -1.3935719072     1.3268160893
   53      H      -5.2912123018    -0.4753381701     0.9930546465
   54      C      -4.7690043990    -1.7123625954     2.6781939917
   55      H      -5.1931073919    -1.0344688875     3.4079885144
   56      C      -4.1955745486    -2.9097585281     3.0985115166
   57      H      -4.1717061966    -3.1493037959     4.1537251310
   58      C      -3.6696293035    -3.8071683165     2.1790202769
   59      H      -3.2370826748    -4.7418240935     2.5137826927
   60      C      -3.7224944729    -3.4884826148     0.8286224946
   61      C      -3.2651329527    -4.2103090121    -0.3565605066
   62      C      -2.6593157049    -5.4499493909    -0.4873219746
   63      H      -2.4539784133    -6.0634290476     0.3815198053
   64      C      -2.3283118390    -5.9003347644    -1.7584356544
   65      H      -1.8613195050    -6.8687959216    -1.8807067210
   66      C      -2.6026457267    -5.1212275459    -2.8781127195
   67      H      -2.3475906844    -5.4912859206    -3.8627481314
   68      C      -3.2123297983    -3.8796935424    -2.7480067802
   69      H      -3.4405082751    -3.2902292012    -3.6271162304
   70      C      -3.5397392759    -3.4298919603    -1.4831112934
   71      C       3.6134282721    -0.5331601760     1.9294253700
   72      H       3.7454850112    -0.3889273108     2.9999759800
   73      H       4.5771713910    -0.3294393561     1.4667695727
   74      H       3.3637858197    -1.5787928830     1.7534403230
   75      C       2.8977263304     1.8729336220     1.6235407718
   76      H       3.0090434750     2.0618931980     2.6911610786
   77      H       3.8407560329     2.1184129181     1.1352185455
   78      H       2.1310443429     2.5460692189     1.2388438075
 ----------------------------------------------------------------

   15   -1855.5362258566      6.03e-09  Convergence criterion met
 Total energy in the final basis set =    -1855.5362258566

         TDDFT/TDA Excitation Energies
 ---------------------------------------------------

 Excited state   1: excitation energy (eV) =    2.9466
 Total energy for state  1:                 -1855.42794150 au
    Multiplicity: Triplet
    Trans. Mom.:  0.0000 X   0.0000 Y   0.0000 Z
    Strength   :     0.0000000000
    D(150) --> V(  1) amplitude = -0.2778
    D(151) --> V(  1) amplitude =  0.3021
    D(158) --> V(  1) amplitude =  0.8530

 Excited state   2: excitation energy (eV) =    2.9533
 Total energy for state  2:                 -1855.42769422 au
    Multiplicity: Singlet
    Trans. Mom.: -0.1351 X  -0.0627 Y  -0.0433 Z
    Strength   :     0.0017404768
    D(158) --> V(  1) amplitude =  0.9981

 Excited state   3: excitation energy (eV) =    2.9670
 Total energy for state  3:                 -1855.42718889 au
    Multiplicity: Triplet
    Trans. Mom.:  0.0000 X   0.0000 Y   0.0000 Z
    Strength   :     0.0000000000
    D(149) --> V(  1) amplitude =  0.2949
    D(150) --> V(  1) amplitude =  0.4468
    D(151) --> V(  1) amplitude = -0.5030
    D(158) --> V(  1) amplitude =  0.5177

 Excited state   4: excitation energy (eV) =    3.3708
 Total energy for state  4:                 -1855.41235029 au
    Multiplicity: Triplet
    Trans. Mom.:  0.0000 X   0.0000 Y   0.0000 Z
    Strength   :     0.0000000000
    D(157) --> V(  1) amplitude =  0.2155
    D(157) --> V(  2) amplitude = -0.5329
    D(157) --> V(  3) amplitude = -0.6047

 Excited state   5: excitation energy (eV) =    3.4384
 Total energy for state  5:                 -1855.40986605 au
    Multiplicity: Triplet
    Trans. Mom.:  0.0000 X   0.0000 Y   0.0000 Z
    Strength   :     0.0000000000
    D(158) --> V(  6) amplitude =  0.2919
    D(158) --> V(  7) amplitude = -0.5293
    D(158) --> V(  8) amplitude = -0.6174

 Excited state   6: excitation energy (eV) =    3.6998
 Total energy for state  6:                 -1855.40025895 au
    Multiplicity: Triplet
    Trans. Mom.:  0.0000 X   0.0000 Y   0.0000 Z
    Strength   :     0.0000000000
    D(148) --> V(  1) amplitude = -0.2537
    D(149) --> V(  1) amplitude = -0.3996
    D(157) --> V(  1) amplitude =  0.7613

 Excited state   7: excitation energy (eV) =    3.7307
 Total energy for state  7:                 -1855.39912418 au
    Multiplicity: Triplet
    Trans. Mom.:  0.0000 X   0.0000 Y   0.0000 Z
    Strength   :     0.0000000000
    D(158) --> V(  4) amplitude = -0.2883
    D(158) --> V(  5) amplitude =  0.2447
    D(158) --> V(  6) amplitude = -0.4045
    D(158) --> V(  7) amplitude =  0.3679
    D(158) --> V(  8) amplitude = -0.4356

 Excited state   8: excitation energy (eV) =    3.7894
 Total energy for state  8:                 -1855.39696863 au
    Multiplicity: Singlet
    Trans. Mom.:  0.5386 X  -0.1334 Y   0.3249 Z
    Strength   :     0.0383852980
    D(157) --> V(  1) amplitude =  0.9899

 Excited state   9: excitation energy (eV) =    3.9563
 Total energy for state  9:                 -1855.39083544 au
    Multiplicity: Singlet
    Trans. Mom.:  0.1054 X   0.0767 Y  -0.0189 Z
    Strength   :     0.0016821453
    D(158) --> V(  2) amplitude =  0.9447
    D(158) --> V(  3) amplitude =  0.2612

 Excited state  10: excitation energy (eV) =    4.1642
 Total energy for state 10:                 -1855.38319479 au
    Multiplicity: Singlet
    Trans. Mom.: -0.2872 X   0.0924 Y  -0.0577 Z
    Strength   :     0.0096282300
    D(158) --> V(  4) amplitude = -0.6865
    D(158) --> V(  5) amplitude =  0.5294
    D(158) --> V(  6) amplitude = -0.3697

 Excited state  11: excitation energy (eV) =    4.1760
 Total energy for state 11:                 -1855.38276166 au
    Multiplicity: Singlet
    Trans. Mom.: -0.4585 X  -0.1496 Y   0.0561 Z
    Strength   :     0.0241214631
    D(158) --> V(  3) amplitude =  0.5797
    D(158) --> V(  5) amplitude = -0.4625
    D(158) --> V(  6) amplitude = -0.6243

 Excited state  12: excitation energy (eV) =    4.4195
 Total energy for state 12:                 -1855.37381155 au
    Multiplicity: Singlet
    Trans. Mom.:  0.2692 X   0.0023 Y  -0.4074 Z
    Strength   :     0.0258154970
    D(158) --> V(  2) amplitude = -0.2792
    D(158) --> V(  3) amplitude =  0.7251
    D(158) --> V(  6) amplitude =  0.5335
    D(158) --> V(  7) amplitude = -0.2753

 ---------------------------------------------------

                    Orbital Energies (a.u.)
 --------------------------------------------------------------

 Alpha MOs
 -- Occupied --
-14.676 -14.674 -14.671 -10.533 -10.531 -10.519 -10.516 -10.512
-10.508 -10.503 -10.496 -10.494 -10.494 -10.492 -10.491 -10.482
-10.475 -10.473 -10.472 -10.471 -10.470 -10.467 -10.464 -10.463
-10.462 -10.462 -10.462 -10.460 -10.460 -10.460 -10.460 -10.460
-10.458 -10.457 -10.456 -10.448 -10.448 -10.441 -10.441 -10.440
-10.439 -10.438 -10.436 -10.433 -10.432 -10.421 -10.420  -1.092
 -1.046  -1.032  -1.030  -1.003  -0.982  -0.965  -0.957  -0.955
 -0.936  -0.931  -0.906  -0.899  -0.887  -0.882  -0.855  -0.852
 -0.847  -0.842  -0.834  -0.821  -0.814  -0.806  -0.791  -0.775
 -0.765  -0.744  -0.728  -0.724  -0.710  -0.710  -0.702  -0.686
 -0.678  -0.675  -0.667  -0.666  -0.663  -0.644  -0.614  -0.613
 -0.612  -0.607  -0.596  -0.583  -0.576  -0.567  -0.560  -0.556
 -0.537  -0.535  -0.531  -0.528  -0.527  -0.523  -0.521  -0.519
 -0.512  -0.507  -0.504  -0.500  -0.498  -0.496  -0.492  -0.489
 -0.484  -0.483  -0.480  -0.476  -0.469  -0.463  -0.461  -0.455
 -0.454  -0.448  -0.447  -0.445  -0.440  -0.436  -0.434  -0.430
 -0.428  -0.427  -0.423  -0.419  -0.417  -0.414  -0.411  -0.409
 -0.408  -0.406  -0.401  -0.400  -0.395  -0.394  -0.391  -0.371
 -0.371  -0.361  -0.347  -0.336  -0.325  -0.311  -0.304  -0.298
 -0.296  -0.286  -0.286  -0.283  -0.267  -0.217

          Ground-State Mulliken Net Atomic Charges

     Atom                 Charge (a.u.)
  ----------------------------------------
      1 N                    -0.708406
      2 C                     0.303952
      3 C                     0.296918
      4 C                     0.135858
      5 C                    -0.313088
      6 H                     0.233382
      7 C                    -0.253832
      8 H                     0.230263
      9 C                    -0.250264
     10 H                     0.235990
     11 C                    -0.311468
     12 H                     0.261394
     13 C                     0.128390
     14 C                    -0.310830
     15 H                     0.232548
     16 C                    -0.255320
     17 H                     0.228631
     18 C                    -0.248868
     19 H                     0.233321
     20 C                    -0.322328
     21 H                     0.274431
     22 C                     0.173620
     23 C                    -0.284611
     24 H                     0.286102
     25 C                    -0.217743
     26 H                     0.262098
     27 C                    -0.320633
     28 H                     0.241662
     29 C                     0.224511
     30 C                     0.060998
     31 C                    -0.528486
     32 H                     0.265212
     33 H                     0.258174
     34 C                    -0.201442
     35 C                    -0.549694
     36 H                     0.268639
     37 H                     0.270205
     38 C                     0.142050
     39 C                    -0.321632
     40 H                     0.272002
     41 C                     0.063878
     42 C                     0.011855
     43 N                    -0.201366
     44 C                     0.164119
     45 C                    -0.290115
     46 H                     0.292729
     47 C                     0.073403
     48 C                     0.010940
     49 N                    -0.200542
     50 C                    -0.414070
     51 C                     0.026557
     52 C                    -0.267468
     53 H                     0.247331
     54 C                    -0.251813
     55 H                     0.249707
     56 C                    -0.229695
     57 H                     0.250545
     58 C                    -0.345502
     59 H                     0.239630
     60 C                     0.158337
     61 C                     0.124247
     62 C                    -0.337769
     63 H                     0.239917
     64 C                    -0.236633
     65 H                     0.250232
     66 C                    -0.241804
     67 H                     0.248251
     68 C                    -0.297460
     69 H                     0.239806
     70 C                     0.157562
     71 C                    -0.629128
     72 H                     0.229467
     73 H                     0.229201
     74 H                     0.237306
     75 C                    -0.607743
     76 H                     0.226615
     77 H                     0.225848
     78 H                     0.231925
  ----------------------------------------
  Sum of atomic charges =    -0.000000

                    Cartesian Multipole Moments
 -----------------------------------------------------------------
    Charge (ESU x 10^10)
                -0.0000
    Dipole Moment (Debye)
         X       7.7001      Y       4.4587      Z      -0.7225
       Tot       8.9271
    Quadrupole Moments (Debye-Ang)
        XX    -388.7856     XY     -65.5386     YY    -283.9402
        XZ     -11.4102     YZ     -11.9339     ZZ    -244.9597

 Total job time:  9443.09s(wall), 35340.22s(cpu)
        *  Thank you very much for using Q-Chem.  Have a nice day.  *
