 Q-Chem 5.1, Q-Chem, Inc., Pleasanton, CA (2018)
 Q-Chem 5.1.1 for Intel X86 EM64T Linux

User input:
--------------------------------------------------------------
$solvent
dielectric      3.00000000000000000000
dielectric_infi 2.25
$end

$rem
threads 8
jobtype	sp
method PBEh-3c
basis def2-mSVP
mem_static	1024
mem_total	14000
sym_ignore	true
cis_n_roots             2
cis_singlets            true
cis_triplets		false
rpa                     false
calc_soc 		true
cis_moments             true
cis_relaxed_density	true
solvent_method		pcm
$end

$pcm
StateSpecific   1
ChargeSeparation Excited
$end

$molecule
read moms1opt_300.mol
$end

--------------------------------------------------------------

   15   -1855.5418874825      5.86e-09  Convergence criterion met
 Total energy in the final basis set =    -1855.5418874825
 Total job time:  4952.45s(wall), 19622.65s(cpu)
        *  Thank you very much for using Q-Chem.  Have a nice day.  *
 Q-Chem 5.1, Q-Chem, Inc., Pleasanton, CA (2018)
 Q-Chem 5.1.1 for Intel X86 EM64T Linux

User input:
--------------------------------------------------------------
$rem
threads 8
jobtype sp
method PBEh-3c
basis def2-mSVP
mem_static      1024
mem_total       14000
sym_ignore      true
cis_n_roots             6
cis_singlets            true
cis_triplets            true
rpa                     false
calc_soc                true
cis_moments             true
cis_relaxed_density     true
solvent_method          pcm
$end

$molecule
read
$end

$pcm
statespecific           Marcus
$end

$solvent
dielectric      3.00000000000000000000
dielectric_infi 2.25
$end

--------------------------------------------------------------

             Standard Nuclear Orientation (Angstroms)
    I     Atom           X                Y                Z
 ----------------------------------------------------------------
    1      N       0.0000000000     0.0000000000     0.0000000000
    2      C       0.0000000000     0.0000000000     1.3787340000
    3      C       1.1609381049     0.0000000000    -0.7453832135
    4      C       2.4044987799     0.1894690927    -0.1173804620
    5      C       3.5294639416     0.2396101244    -0.9278578018
    6      H       4.4997427952     0.4169919901    -0.4848100229
    7      C       3.4463791312     0.0729427294    -2.3008213487
    8      H       4.3447335516     0.1165771312    -2.9011953092
    9      C       2.2129254921    -0.1619674644    -2.9044782289
   10      H       2.1448251482    -0.3202144946    -3.9715738826
   11      C       1.0750173652    -0.1972155516    -2.1382359614
   12      H       0.1212929915    -0.3927729641    -2.6055766112
   13      C       1.2154537183     0.1329007430     2.0777314208
   14      C       1.1640168687     0.1203077622     3.4636850920
   15      H       2.0755529623     0.2421989083     4.0316735837
   16      C      -0.0300387059    -0.0276510413     4.1507053496
   17      H      -0.0292015626    -0.0394236945     5.2320539430
   18      C      -1.2267427041    -0.1454162686     3.4487655093
   19      H      -2.1666550198    -0.2546134743     3.9713760876
   20      C      -1.2203386293    -0.1186437580     2.0772857450
   21      H      -2.1606992142    -0.2016526427     1.5536907244
   22      C      -1.2510529438     0.0816442425    -0.6990791874
   23      C      -2.0951852094    -1.0049962101    -0.7459373601
   24      H      -1.7875044663    -1.9266982629    -0.2681397650
   25      C      -1.5990696948     1.2858043411    -1.2923423110
   26      H      -0.9443833304     2.1460931281    -1.2433709826
   27      C      -2.7995801098     1.3417090370    -1.9644767010
   28      H      -3.0728772784     2.2604928161    -2.4683119142
   29      C      -3.3492925257    -0.9257017417    -1.3596838262
   30      C      -3.6826243690     0.2578518533    -2.0242222628
   31      C      -4.9059474743     0.4117657781    -2.8802778159
   32      H      -4.7736997053     1.2998858419    -3.5010121328
   33      H      -5.7938110795     0.5963301193    -2.2694221360
   34      C       2.5229428740     0.3923330092     1.3713388512
   35      C      -5.1436068300    -0.8174707391    -3.7622949203
   36      H      -5.6548175280    -0.5161966829    -4.6780696615
   37      H      -4.1724135187    -1.2178182264    -4.0782658886
   38      C      -5.9855364946    -1.8221302996    -3.0413858212
   39      C      -7.1681302779    -2.2201154835    -3.6009322690
   40      H      -7.4055348097    -1.8861674799    -4.6053584615
   41      C      -8.1236164880    -3.0105166226    -2.9264769330
   42      C      -9.3061410049    -3.3912876999    -3.5639505868
   43      N     -10.2903003102    -3.7000881432    -4.1036721300
   44      C      -5.6644059307    -2.2178428719    -1.6920866256
   45      C      -6.6079010757    -2.9579905237    -1.0056840299
   46      H      -6.4074365441    -3.2806843207     0.0077013420
   47      C      -7.8308974857    -3.3537237913    -1.5544790356
   48      C      -8.7383322116    -4.0755982573    -0.7620262548
   49      N      -9.4848970645    -4.6742317877    -0.1046266238
   50      C      -4.2541232842    -2.1444206973    -1.1096852936
   51      C      -4.2940975448    -2.2971269290     0.4036474412
   52      C      -4.8205359668    -1.4068809674     1.3197780294
   53      H      -5.2886505431    -0.4864308982     0.9910282045
   54      C      -4.7671064280    -1.7326228611     2.6694952727
   55      H      -5.1903790931    -1.0581009911     3.4028695217
   56      C      -4.1934329814    -2.9320540870     3.0837630214
   57      H      -4.1688967363    -3.1765511245     4.1378167486
   58      C      -3.6670972777    -3.8245997901     2.1597492695
   59      H      -3.2336631215    -4.7605620852     2.4896850644
   60      C      -3.7198743023    -3.4987452320     0.8110259815
   61      C      -3.2608171722    -4.2137592772    -0.3776442649
   62      C      -2.6530396613    -5.4518587354    -0.5142848487
   63      H      -2.4475504971    -6.0694952583     0.3515745854
   64      C      -2.3197795010    -5.8949201101    -1.7874250225
   65      H      -1.8509007255    -6.8618965607    -1.9142488192
   66      C      -2.5935820917    -5.1101314312    -2.9032590260
   67      H      -2.3361508598    -5.4741854015    -3.8895152638
   68      C      -3.2052948868    -3.8701136610    -2.7671477609
   69      H      -3.4320599939    -3.2758222059    -3.6433879981
   70      C      -3.5351815235    -3.4277518370    -1.5003064385
   71      C       3.6120510410    -0.5386921755     1.9288638570
   72      H       3.7436271732    -0.3957508657     2.9996407499
   73      H       4.5762675762    -0.3358325158     1.4668211782
   74      H       3.3606946460    -1.5836960276     1.7515141888
   75      C       2.9009344053     1.8690204134     1.6244657404
   76      H       3.0127305850     2.0567190124     2.6922431051
   77      H       3.8443878290     2.1128077850     1.1361411588
   78      H       2.1353929187     2.5437450702     1.2402731219
 ----------------------------------------------------------------

   15   -1855.5356532886      6.05e-09  Convergence criterion met
 Total energy in the final basis set =    -1855.5356532886

         TDDFT/TDA Excitation Energies
 ---------------------------------------------------

 Excited state   1: excitation energy (eV) =    2.8600
 Total energy for state  1:                 -1855.43055107 au
    Multiplicity: Triplet
    Trans. Mom.:  0.0000 X   0.0000 Y   0.0000 Z
    Strength   :     0.0000000000
    D(158) --> V(  1) amplitude =  0.9941

 Excited state   2: excitation energy (eV) =    2.8619
 Total energy for state  2:                 -1855.43048043 au
    Multiplicity: Singlet
    Trans. Mom.: -0.1362 X  -0.0625 Y  -0.0442 Z
    Strength   :     0.0017114504
    D(158) --> V(  1) amplitude =  0.9982

 Excited state   3: excitation energy (eV) =    2.9590
 Total energy for state  3:                 -1855.42691310 au
    Multiplicity: Triplet
    Trans. Mom.:  0.0000 X   0.0000 Y   0.0000 Z
    Strength   :     0.0000000000
    D(148) --> V(  1) amplitude = -0.2219
    D(149) --> V(  1) amplitude = -0.3828
    D(150) --> V(  1) amplitude = -0.5359
    D(151) --> V(  1) amplitude = -0.5595
    D(157) --> V(  1) amplitude =  0.2363

 Excited state   4: excitation energy (eV) =    3.3690
 Total energy for state  4:                 -1855.41184646 au
    Multiplicity: Triplet
    Trans. Mom.:  0.0000 X   0.0000 Y   0.0000 Z
    Strength   :     0.0000000000
    D(157) --> V(  1) amplitude =  0.2343
    D(157) --> V(  2) amplitude = -0.5027
    D(157) --> V(  3) amplitude =  0.6200

 Excited state   5: excitation energy (eV) =    3.4383
 Total energy for state  5:                 -1855.40929651 au
    Multiplicity: Triplet
    Trans. Mom.:  0.0000 X   0.0000 Y   0.0000 Z
    Strength   :     0.0000000000
    D(158) --> V(  6) amplitude =  0.2870
    D(158) --> V(  7) amplitude = -0.4967
    D(158) --> V(  8) amplitude = -0.6353
    D(158) --> V(  9) amplitude = -0.2329

 Excited state   6: excitation energy (eV) =    3.6692
 Total energy for state  6:                 -1855.40081258 au
    Multiplicity: Triplet
    Trans. Mom.:  0.0000 X   0.0000 Y   0.0000 Z
    Strength   :     0.0000000000
    D(148) --> V(  1) amplitude = -0.2309
    D(149) --> V(  1) amplitude =  0.3683
    D(157) --> V(  1) amplitude =  0.7996

 Excited state   7: excitation energy (eV) =    3.7297
 Total energy for state  7:                 -1855.39859086 au
    Multiplicity: Triplet
    Trans. Mom.:  0.0000 X   0.0000 Y   0.0000 Z
    Strength   :     0.0000000000
    D(152) --> V(  6) amplitude =  0.2173
    D(158) --> V(  4) amplitude = -0.2722
    D(158) --> V(  5) amplitude = -0.2791
    D(158) --> V(  6) amplitude =  0.4022
    D(158) --> V(  7) amplitude = -0.3843
    D(158) --> V(  8) amplitude =  0.4256

 Excited state   8: excitation energy (eV) =    3.7425
 Total energy for state  8:                 -1855.39811794 au
    Multiplicity: Singlet
    Trans. Mom.:  0.5338 X  -0.1367 Y   0.3167 Z
    Strength   :     0.0370359003
    D(157) --> V(  1) amplitude =  0.9901

 Excited state   9: excitation energy (eV) =    3.8996
 Total energy for state  9:                 -1855.39234483 au
    Multiplicity: Singlet
    Trans. Mom.:  0.1046 X   0.0729 Y  -0.0127 Z
    Strength   :     0.0015683940
    D(158) --> V(  2) amplitude =  0.9474
    D(158) --> V(  3) amplitude = -0.2667

 Excited state  10: excitation energy (eV) =    4.1410
 Total energy for state 10:                 -1855.38347270 au
    Multiplicity: Singlet
    Trans. Mom.:  0.4209 X  -0.0308 Y   0.0512 Z
    Strength   :     0.0183331418
    D(158) --> V(  3) amplitude =  0.4145
    D(158) --> V(  4) amplitude = -0.5510
    D(158) --> V(  5) amplitude = -0.3832
    D(158) --> V(  6) amplitude =  0.5343

 Excited state  11: excitation energy (eV) =    4.1489
 Total energy for state 11:                 -1855.38318522 au
    Multiplicity: Singlet
    Trans. Mom.:  0.2902 X   0.1694 Y  -0.0596 Z
    Strength   :     0.0118390187
    D(158) --> V(  3) amplitude =  0.5083
    D(158) --> V(  4) amplitude =  0.3544
    D(158) --> V(  5) amplitude =  0.6391
    D(158) --> V(  6) amplitude =  0.4263

 Excited state  12: excitation energy (eV) =    4.3673
 Total energy for state 12:                 -1855.37515772 au
    Multiplicity: Singlet
    Trans. Mom.: -0.3008 X  -0.0230 Y   0.2885 Z
    Strength   :     0.0186445544
    D(158) --> V(  2) amplitude =  0.2775
    D(158) --> V(  3) amplitude =  0.6896
    D(158) --> V(  6) amplitude = -0.5927
    D(158) --> V(  7) amplitude =  0.2416

 ---------------------------------------------------

                    Orbital Energies (a.u.)
 --------------------------------------------------------------

 Alpha MOs
 -- Occupied --
-14.676 -14.675 -14.673 -10.534 -10.533 -10.521 -10.519 -10.513
-10.509 -10.505 -10.497 -10.496 -10.493 -10.490 -10.489 -10.482
-10.475 -10.473 -10.472 -10.471 -10.470 -10.467 -10.464 -10.462
-10.462 -10.462 -10.462 -10.461 -10.460 -10.460 -10.460 -10.459
-10.458 -10.456 -10.455 -10.447 -10.446 -10.439 -10.439 -10.438
-10.438 -10.437 -10.435 -10.431 -10.430 -10.419 -10.418  -1.091
 -1.048  -1.034  -1.031  -1.004  -0.982  -0.965  -0.956  -0.954
 -0.937  -0.931  -0.905  -0.900  -0.888  -0.882  -0.854  -0.852
 -0.845  -0.842  -0.832  -0.821  -0.812  -0.806  -0.791  -0.775
 -0.763  -0.744  -0.728  -0.725  -0.709  -0.708  -0.701  -0.686
 -0.678  -0.675  -0.667  -0.665  -0.662  -0.644  -0.614  -0.611
 -0.611  -0.607  -0.597  -0.584  -0.576  -0.567  -0.559  -0.556
 -0.537  -0.534  -0.530  -0.528  -0.527  -0.522  -0.519  -0.518
 -0.512  -0.507  -0.503  -0.499  -0.498  -0.497  -0.491  -0.489
 -0.483  -0.482  -0.479  -0.474  -0.469  -0.464  -0.462  -0.458
 -0.455  -0.448  -0.445  -0.445  -0.442  -0.436  -0.433  -0.430
 -0.428  -0.427  -0.421  -0.417  -0.417  -0.415  -0.411  -0.410
 -0.408  -0.407  -0.401  -0.400  -0.395  -0.393  -0.390  -0.370
 -0.369  -0.360  -0.347  -0.338  -0.326  -0.312  -0.304  -0.297
 -0.296  -0.285  -0.285  -0.281  -0.268  -0.215

          Ground-State Mulliken Net Atomic Charges

     Atom                 Charge (a.u.)
  ----------------------------------------
      1 N                    -0.708388
      2 C                     0.304602
      3 C                     0.297666
      4 C                     0.135493
      5 C                    -0.313645
      6 H                     0.234732
      7 C                    -0.254584
      8 H                     0.231134
      9 C                    -0.251029
     10 H                     0.236645
     11 C                    -0.312063
     12 H                     0.261329
     13 C                     0.128253
     14 C                    -0.311413
     15 H                     0.233987
     16 C                    -0.256023
     17 H                     0.229579
     18 C                    -0.249861
     19 H                     0.233745
     20 C                    -0.322696
     21 H                     0.273702
     22 C                     0.172830
     23 C                    -0.283754
     24 H                     0.286228
     25 C                    -0.217380
     26 H                     0.263638
     27 C                    -0.321452
     28 H                     0.242730
     29 C                     0.224302
     30 C                     0.060805
     31 C                    -0.529078
     32 H                     0.266475
     33 H                     0.257695
     34 C                    -0.200814
     35 C                    -0.550102
     36 H                     0.269144
     37 H                     0.271492
     38 C                     0.141519
     39 C                    -0.322314
     40 H                     0.273288
     41 C                     0.062436
     42 C                     0.012042
     43 N                    -0.203866
     44 C                     0.165277
     45 C                    -0.290940
     46 H                     0.293446
     47 C                     0.072305
     48 C                     0.011195
     49 N                    -0.202822
     50 C                    -0.414160
     51 C                     0.026830
     52 C                    -0.268140
     53 H                     0.247990
     54 C                    -0.252084
     55 H                     0.250773
     56 C                    -0.230609
     57 H                     0.251750
     58 C                    -0.346236
     59 H                     0.240948
     60 C                     0.157784
     61 C                     0.123809
     62 C                    -0.338503
     63 H                     0.241382
     64 C                    -0.237709
     65 H                     0.251397
     66 C                    -0.242855
     67 H                     0.249388
     68 C                    -0.298688
     69 H                     0.240730
     70 C                     0.156742
     71 C                    -0.629839
     72 H                     0.230015
     73 H                     0.229791
     74 H                     0.237110
     75 C                    -0.608593
     76 H                     0.227006
     77 H                     0.226352
     78 H                     0.232130
  ----------------------------------------
  Sum of atomic charges =    -0.000000

                    Cartesian Multipole Moments
 -----------------------------------------------------------------
    Charge (ESU x 10^10)
                -0.0000
    Dipole Moment (Debye)
         X       7.9799      Y       4.6197      Z      -0.6392
       Tot       9.2428
    Quadrupole Moments (Debye-Ang)
        XX    -391.1385     XY     -66.9631     YY    -284.4476
        XZ     -12.2733     YZ     -12.4299     ZZ    -244.8972

 Total job time:  11017.55s(wall), 37663.86s(cpu)
        *  Thank you very much for using Q-Chem.  Have a nice day.  *
