 Q-Chem 5.1, Q-Chem, Inc., Pleasanton, CA (2018)
 Q-Chem 5.1.1 for Intel X86 EM64T Linux

User input:
--------------------------------------------------------------
$solvent
dielectric      2.50000000000000000000
dielectric_infi 2.25
$end

$rem
threads 8
jobtype	sp
method PBEh-3c
basis def2-mSVP
mem_static	1024
mem_total	14000
sym_ignore	true
cis_n_roots             2
cis_singlets            true
cis_triplets		false
rpa                     false
calc_soc 		true
cis_moments             true
cis_relaxed_density	true
solvent_method		pcm
$end

$pcm
StateSpecific   1
ChargeSeparation Excited
$end

$molecule
read moms1opt_250.mol
$end

--------------------------------------------------------------

   15   -1855.5393270411      5.78e-09  Convergence criterion met
 Total energy in the final basis set =    -1855.5393270411
 Total job time:  4269.23s(wall), 17641.92s(cpu)
        *  Thank you very much for using Q-Chem.  Have a nice day.  *
 Q-Chem 5.1, Q-Chem, Inc., Pleasanton, CA (2018)
 Q-Chem 5.1.1 for Intel X86 EM64T Linux

User input:
--------------------------------------------------------------
$rem
threads 8
jobtype sp
method PBEh-3c
basis def2-mSVP
mem_static      1024
mem_total       14000
sym_ignore      true
cis_n_roots             6
cis_singlets            true
cis_triplets            true
rpa                     false
calc_soc                true
cis_moments             true
cis_relaxed_density     true
solvent_method          pcm
$end

$molecule
read
$end

$pcm
statespecific           Marcus
$end

$solvent
dielectric      2.50000000000000000000
dielectric_infi 2.25
$end

--------------------------------------------------------------

             Standard Nuclear Orientation (Angstroms)
    I     Atom           X                Y                Z
 ----------------------------------------------------------------
    1      N       0.0000000000     0.0000000000     0.0000000000
    2      C       0.0000000000     0.0000000000     1.3788810000
    3      C       1.1616810275     0.0000000000    -0.7448808701
    4      C       2.4045760095     0.1933042568    -0.1170984767
    5      C       3.5295617892     0.2442795037    -0.9274335204
    6      H       4.4992903964     0.4243843793    -0.4842796233
    7      C       3.4474010188     0.0744858912    -2.3000271824
    8      H       4.3458142611     0.1189612713    -2.9002387831
    9      C       2.2149231172    -0.1655618950    -2.9031894992
   10      H       2.1474865279    -0.3274558391    -3.9697689809
   11      C       1.0768920138    -0.2019537155    -2.1370508079
   12      H       0.1237974329    -0.4024788114    -2.6035634997
   13      C       1.2154029601     0.1346711536     2.0778293228
   14      C       1.1640861922     0.1211891014     3.4636399801
   15      H       2.0755564408     0.2442365288     4.0314809975
   16      C      -0.0295627805    -0.0293997951     4.1508981534
   17      H      -0.0283551966    -0.0422357984     5.2322262964
   18      C      -1.2260467761    -0.1482605863     3.4491844956
   19      H      -2.1660215262    -0.2599000692     3.9710773404
   20      C      -1.2200176775    -0.1200267874     2.0777253345
   21      H      -2.1607361956    -0.2033643087     1.5547536876
   22      C      -1.2503443858     0.0788198112    -0.7001158803
   23      C      -2.0975887469    -1.0059158914    -0.7364266907
   24      H      -1.7925951526    -1.9246086454    -0.2511398269
   25      C      -1.5950645161     1.2780000609    -1.3057615455
   26      H      -0.9384641173     2.1372801057    -1.2652080237
   27      C      -2.7953083823     1.3300186171    -1.9786098340
   28      H      -3.0661308824     2.2442565588    -2.4919648653
   29      C      -3.3518420095    -0.9292857132    -1.3497894428
   30      C      -3.6816066628     0.2481572866    -2.0272698542
   31      C      -4.9038429880     0.3952796656    -2.8859014478
   32      H      -4.7690402872     1.2760338079    -3.5166984801
   33      H      -5.7917340531     0.5881949090    -2.2777578454
   34      C       2.5223119512     0.3981747867     1.3714558686
   35      C      -5.1439821567    -0.8443219811    -3.7530156823
   36      H      -5.6534707552    -0.5527833597    -4.6729216410
   37      H      -4.1729936866    -1.2503038263    -4.0633595331
   38      C      -5.9891778891    -1.8374847402    -3.0203124073
   39      C      -7.1727692528    -2.2396896927    -3.5752190043
   40      H      -7.4083041440    -1.9198047814    -4.5846694330
   41      C      -8.1315585467    -3.0158900170    -2.8905281322
   42      C      -9.3149759696    -3.4009366108    -3.5253420211
   43      N     -10.2980876032    -3.7115020724    -4.0650134788
   44      C      -5.6716480673    -2.2132507205    -1.6646085729
   45      C      -6.6192681588    -2.9410013504    -0.9688915425
   46      H      -6.4214412083    -3.2498492594     0.0493225043
   47      C      -7.8417426759    -3.3397981616    -1.5134331156
   48      C      -8.7525316112    -4.0469554719    -0.7100332965
   49      N      -9.4990543502    -4.6325942961    -0.0417430059
   50      C      -4.2609642270    -2.1417274540    -1.0849919380
   51      C      -4.2991283274    -2.2766729463     0.4300493947
   52      C      -4.8242169049    -1.3753368355     1.3360410450
   53      H      -5.2938397834    -0.4597490086     0.9960981957
   54      C      -4.7707126983    -1.6853072293     2.6894613241
   55      H      -5.1952793402    -1.0029741659     3.4148536405
   56      C      -4.1976735372    -2.8801868601     3.1172862399
   57      H      -4.1742261679    -3.1133539576     4.1739471968
   58      C      -3.6727601473    -3.7838778578     2.2034044912
   59      H      -3.2413573781    -4.7168972219     2.5441478957
   60      C      -3.7261517795    -3.4742940049     0.8509425377
   61      C      -3.2714330088    -4.2048077581    -0.3298871028
   62      C      -2.6684305507    -5.4465121097    -0.4532634097
   63      H      -2.4631402159    -6.0546650710     0.4193249347
   64      C      -2.3407777226    -5.9063279814    -1.7218127548
   65      H      -1.8763747302    -6.8767213627    -1.8383688121
   66      C      -2.6159363863    -5.1344405733    -2.8462764608
   67      H      -2.3641629381    -5.5121445674    -3.8288478318
   68      C      -3.2227336786    -3.8908701462    -2.7236971513
   69      H      -3.4526103765    -3.3075054563    -3.6063875072
   70      C      -3.5465616082    -3.4314873054    -1.4612719765
   71      C       3.6145190495    -0.5286925463     1.9295951140
   72      H       3.7469862062    -0.3839902113     3.0000408089
   73      H       4.5778890930    -0.3241295474     1.4665176548
   74      H       3.3662189526    -1.5747338259     1.7542267837
   75      C       2.8951984712     1.8762811270     1.6234490638
   76      H       3.0065677663     2.0659070335     2.6909559920
   77      H       3.8376872525     2.1235436331     1.1349599125
   78      H       2.1274369233     2.5482936446     1.2389586823
 ----------------------------------------------------------------

   15   -1855.5368832460      5.86e-09  Convergence criterion met
 Total energy in the final basis set =    -1855.5368832460

         TDDFT/TDA Excitation Energies
 ---------------------------------------------------

 Excited state   1: excitation energy (eV) =    2.9641
 Total energy for state  1:                 -1855.42795557 au
    Multiplicity: Triplet
    Trans. Mom.:  0.0000 X   0.0000 Y   0.0000 Z
    Strength   :     0.0000000000
    D(148) --> V(  1) amplitude = -0.2323
    D(149) --> V(  1) amplitude =  0.2936
    D(150) --> V(  1) amplitude =  0.5040
    D(151) --> V(  1) amplitude = -0.6029
    D(153) --> V(  1) amplitude =  0.2616
    D(157) --> V(  1) amplitude =  0.2277

 Excited state   2: excitation energy (eV) =    3.0600
 Total energy for state  2:                 -1855.42442969 au
    Multiplicity: Triplet
    Trans. Mom.:  0.0000 X   0.0000 Y   0.0000 Z
    Strength   :     0.0000000000
    D(158) --> V(  1) amplitude =  0.9925

 Excited state   3: excitation energy (eV) =    3.0604
 Total energy for state  3:                 -1855.42441539 au
    Multiplicity: Singlet
    Trans. Mom.: -0.1348 X  -0.0630 Y  -0.0419 Z
    Strength   :     0.0017901112
    D(158) --> V(  1) amplitude =  0.9979

 Excited state   4: excitation energy (eV) =    3.3725
 Total energy for state  4:                 -1855.41294590 au
    Multiplicity: Triplet
    Trans. Mom.:  0.0000 X   0.0000 Y   0.0000 Z
    Strength   :     0.0000000000
    D(157) --> V(  2) amplitude = -0.5685
    D(157) --> V(  3) amplitude = -0.5817

 Excited state   5: excitation energy (eV) =    3.4385
 Total energy for state  5:                 -1855.41052164 au
    Multiplicity: Triplet
    Trans. Mom.:  0.0000 X   0.0000 Y   0.0000 Z
    Strength   :     0.0000000000
    D(158) --> V(  6) amplitude =  0.2993
    D(158) --> V(  7) amplitude = -0.5652
    D(158) --> V(  8) amplitude = -0.5901

 Excited state   6: excitation energy (eV) =    3.7253
 Total energy for state  6:                 -1855.39998137 au
    Multiplicity: Triplet
    Trans. Mom.:  0.0000 X   0.0000 Y   0.0000 Z
    Strength   :     0.0000000000
    D(149) --> V(  1) amplitude = -0.2334
    D(157) --> V(  1) amplitude =  0.4101
    D(158) --> V(  4) amplitude = -0.2671
    D(158) --> V(  6) amplitude = -0.3543
    D(158) --> V(  7) amplitude =  0.2770
    D(158) --> V(  8) amplitude = -0.3744

 Excited state   7: excitation energy (eV) =    3.7386
 Total energy for state  7:                 -1855.39949301 au
    Multiplicity: Triplet
    Trans. Mom.:  0.0000 X   0.0000 Y   0.0000 Z
    Strength   :     0.0000000000
    D(148) --> V(  1) amplitude = -0.2532
    D(149) --> V(  1) amplitude = -0.4084
    D(157) --> V(  1) amplitude =  0.6052
    D(158) --> V(  6) amplitude =  0.2322
    D(158) --> V(  8) amplitude =  0.2685

 Excited state   8: excitation energy (eV) =    3.8438
 Total energy for state  8:                 -1855.39562639 au
    Multiplicity: Singlet
    Trans. Mom.:  0.5449 X  -0.1297 Y   0.3345 Z
    Strength   :     0.0400845058
    D(157) --> V(  1) amplitude =  0.9895

 Excited state   9: excitation energy (eV) =    4.0202
 Total energy for state  9:                 -1855.38914476 au
    Multiplicity: Singlet
    Trans. Mom.:  0.1074 X   0.0831 Y  -0.0296 Z
    Strength   :     0.0019026662
    D(158) --> V(  2) amplitude =  0.9408
    D(158) --> V(  3) amplitude =  0.2458

 Excited state  10: excitation energy (eV) =    4.1890
 Total energy for state 10:                 -1855.38294091 au
    Multiplicity: Singlet
    Trans. Mom.: -0.2503 X   0.1065 Y  -0.0513 Z
    Strength   :     0.0078630770
    D(158) --> V(  4) amplitude = -0.7455
    D(158) --> V(  5) amplitude =  0.4802
    D(158) --> V(  6) amplitude = -0.3451

 Excited state  11: excitation energy (eV) =    4.2064
 Total energy for state 11:                 -1855.38230106 au
    Multiplicity: Singlet
    Trans. Mom.: -0.5108 X  -0.1437 Y   0.0772 Z
    Strength   :     0.0296298367
    D(158) --> V(  3) amplitude =  0.5476
    D(158) --> V(  5) amplitude = -0.4308
    D(158) --> V(  6) amplitude = -0.6740

 Excited state  12: excitation energy (eV) =    4.4800
 Total energy for state 12:                 -1855.37224503 au
    Multiplicity: Singlet
    Trans. Mom.:  0.2552 X  -0.0224 Y  -0.6342 Z
    Strength   :     0.0513534218
    D(158) --> V(  2) amplitude = -0.2615
    D(158) --> V(  3) amplitude =  0.7273
    D(158) --> V(  6) amplitude =  0.4682
    D(158) --> V(  7) amplitude = -0.3696

 ---------------------------------------------------

                    Orbital Energies (a.u.)
 --------------------------------------------------------------

 Alpha MOs
 -- Occupied --
-14.678 -14.671 -14.668 -10.530 -10.529 -10.515 -10.513 -10.510
-10.508 -10.502 -10.495 -10.494 -10.493 -10.493 -10.492 -10.483
-10.474 -10.474 -10.472 -10.471 -10.470 -10.466 -10.466 -10.463
-10.462 -10.462 -10.462 -10.461 -10.460 -10.460 -10.460 -10.459
-10.459 -10.458 -10.457 -10.450 -10.450 -10.443 -10.443 -10.442
-10.441 -10.440 -10.438 -10.435 -10.434 -10.423 -10.422  -1.094
 -1.043  -1.030  -1.028  -1.001  -0.983  -0.964  -0.958  -0.957
 -0.936  -0.930  -0.908  -0.898  -0.887  -0.881  -0.855  -0.852
 -0.848  -0.842  -0.836  -0.821  -0.816  -0.806  -0.791  -0.774
 -0.767  -0.743  -0.728  -0.724  -0.711  -0.711  -0.702  -0.686
 -0.678  -0.674  -0.668  -0.667  -0.663  -0.644  -0.615  -0.615
 -0.613  -0.607  -0.595  -0.583  -0.576  -0.566  -0.560  -0.556
 -0.536  -0.536  -0.532  -0.528  -0.527  -0.523  -0.523  -0.519
 -0.512  -0.507  -0.504  -0.501  -0.497  -0.496  -0.493  -0.490
 -0.485  -0.483  -0.481  -0.478  -0.470  -0.462  -0.460  -0.453
 -0.452  -0.449  -0.448  -0.444  -0.438  -0.436  -0.435  -0.431
 -0.427  -0.427  -0.425  -0.420  -0.418  -0.414  -0.412  -0.408
 -0.407  -0.404  -0.401  -0.400  -0.396  -0.395  -0.391  -0.373
 -0.373  -0.363  -0.347  -0.335  -0.324  -0.310  -0.303  -0.299
 -0.297  -0.288  -0.287  -0.284  -0.267  -0.219

          Ground-State Mulliken Net Atomic Charges

     Atom                 Charge (a.u.)
  ----------------------------------------
      1 N                    -0.708430
      2 C                     0.303169
      3 C                     0.296003
      4 C                     0.136278
      5 C                    -0.312397
      6 H                     0.231783
      7 C                    -0.252931
      8 H                     0.229218
      9 C                    -0.249365
     10 H                     0.235194
     11 C                    -0.310763
     12 H                     0.261485
     13 C                     0.128548
     14 C                    -0.310119
     15 H                     0.230840
     16 C                    -0.254476
     17 H                     0.227490
     18 C                    -0.247683
     19 H                     0.232828
     20 C                    -0.321930
     21 H                     0.275328
     22 C                     0.174532
     23 C                    -0.285705
     24 H                     0.285977
     25 C                    -0.218144
     26 H                     0.260291
     27 C                    -0.319635
     28 H                     0.240393
     29 C                     0.224841
     30 C                     0.061208
     31 C                    -0.527789
     32 H                     0.263728
     33 H                     0.258732
     34 C                    -0.202143
     35 C                    -0.549194
     36 H                     0.268039
     37 H                     0.268693
     38 C                     0.142685
     39 C                    -0.320802
     40 H                     0.270482
     41 C                     0.065567
     42 C                     0.011622
     43 N                    -0.198417
     44 C                     0.162692
     45 C                    -0.289132
     46 H                     0.291871
     47 C                     0.074701
     48 C                     0.010627
     49 N                    -0.197855
     50 C                    -0.413954
     51 C                     0.026176
     52 C                    -0.266655
     53 H                     0.246565
     54 C                    -0.251520
     55 H                     0.248466
     56 C                    -0.228617
     57 H                     0.249117
     58 C                    -0.344619
     59 H                     0.238064
     60 C                     0.158991
     61 C                     0.124724
     62 C                    -0.336887
     63 H                     0.238178
     64 C                    -0.235352
     65 H                     0.248848
     66 C                    -0.240538
     67 H                     0.246902
     68 C                    -0.296045
     69 H                     0.238736
     70 C                     0.158567
     71 C                    -0.628215
     72 H                     0.228806
     73 H                     0.228481
     74 H                     0.237518
     75 C                    -0.606764
     76 H                     0.226147
     77 H                     0.225257
     78 H                     0.231687
  ----------------------------------------
  Sum of atomic charges =     0.000000

                    Cartesian Multipole Moments
 -----------------------------------------------------------------
    Charge (ESU x 10^10)
                -0.0000
    Dipole Moment (Debye)
         X       7.3727      Y       4.2673      Z      -0.8229
       Tot       8.5583
    Quadrupole Moments (Debye-Ang)
        XX    -386.0832     XY     -63.8467     YY    -283.3115
        XZ     -10.3465     YZ     -11.3323     ZZ    -245.0236

 Total job time:  9192.31s(wall), 34439.71s(cpu)
        *  Thank you very much for using Q-Chem.  Have a nice day.  *
