 Q-Chem 5.1, Q-Chem, Inc., Pleasanton, CA (2018)
 Q-Chem 5.1.1 for Intel X86 EM64T Linux

User input:
--------------------------------------------------------------
$solvent
dielectric      2.57000000000000000000
dielectric_infi 2.25
$end

$rem
threads 8
jobtype	sp
method PBEh-3c
basis def2-mSVP
mem_static	1024
mem_total	14000
sym_ignore	true
cis_n_roots             2
cis_singlets            true
cis_triplets		false
rpa                     false
calc_soc 		true
cis_moments             true
cis_relaxed_density	true
solvent_method		pcm
$end

$pcm
StateSpecific   1
ChargeSeparation Excited
$end

$molecule
read moms1opt_257.mol
$end

--------------------------------------------------------------

   15   -1855.5397423257      5.77e-09  Convergence criterion met
 Total energy in the final basis set =    -1855.5397423257
 Total job time:  4406.19s(wall), 17873.64s(cpu)
        *  Thank you very much for using Q-Chem.  Have a nice day.  *
 Q-Chem 5.1, Q-Chem, Inc., Pleasanton, CA (2018)
 Q-Chem 5.1.1 for Intel X86 EM64T Linux

User input:
--------------------------------------------------------------
$rem
threads 8
jobtype sp
method PBEh-3c
basis def2-mSVP
mem_static      1024
mem_total       14000
sym_ignore      true
cis_n_roots             6
cis_singlets            true
cis_triplets            true
rpa                     false
calc_soc                true
cis_moments             true
cis_relaxed_density     true
solvent_method          pcm
$end

$molecule
read
$end

$pcm
statespecific           Marcus
$end

$solvent
dielectric      2.57000000000000000000
dielectric_infi 2.25
$end

--------------------------------------------------------------

             Standard Nuclear Orientation (Angstroms)
    I     Atom           X                Y                Z
 ----------------------------------------------------------------
    1      N       0.0000000000     0.0000000000     0.0000000000
    2      C       0.0000000000     0.0000000000     1.3788550000
    3      C       1.1615567928     0.0000000000    -0.7449690078
    4      C       2.4045630509     0.1926681108    -0.1171464344
    5      C       3.5295494011     0.2434713765    -0.9274966227
    6      H       4.4993674513     0.4231204577    -0.4843558901
    7      C       3.4472447298     0.0741767998    -2.3001513788
    8      H       4.3456564642     0.1184799132    -2.9003815797
    9      C       2.2146052719    -0.1649877251    -2.9034060193
   10      H       2.1470641934    -0.3262825631    -3.9700716816
   11      C       1.0765865390    -0.2011584798    -2.1372581881
   12      H       0.1233870876    -0.4008358176    -2.6039179064
   13      C       1.2154102832     0.1344219135     2.0778103547
   14      C       1.1640723461     0.1211253370     3.4636420346
   15      H       2.0755529747     0.2440103145     4.0315015688
   16      C      -0.0296420408    -0.0290302490     4.1508632545
   17      H      -0.0284979702    -0.0416476710     5.2321950392
   18      C      -1.2261563302    -0.1477819300     3.4491153237
   19      H      -2.1661174905    -0.2590358151     3.9711294707
   20      C      -1.2200652048    -0.1198487856     2.0776522806
   21      H      -2.1607178942    -0.2032274499     1.5545791143
   22      C      -1.2504708503     0.0792839487    -0.6999380326
   23      C      -2.0971544535    -1.0058027562    -0.7380388323
   24      H      -1.7916783518    -1.9249990451    -0.2540195351
   25      C      -1.5957646913     1.2793034114    -1.3034994697
   26      H      -0.9395062029     2.1387752510    -1.2615273794
   27      C      -2.7960316838     1.3319279172    -1.9762716594
   28      H      -3.0672786143     2.2469216398    -2.4880536630
   29      C      -3.3513785906    -0.9287751799    -1.3514911493
   30      C      -3.6817469888     0.2496947404    -2.0268245131
   31      C      -4.9041196244     0.3979139897    -2.8850995649
   32      H      -4.7697319784     1.2799054983    -3.5142228929
   33      H      -5.7920501065     0.5894152953    -2.2765523785
   34      C       2.5224035788     0.3972854692     1.3714253449
   35      C      -5.1437686384    -0.8399786965    -3.7547112483
   36      H      -5.6535049894    -0.5468198072    -4.6739600507
   37      H      -4.1727182570    -1.2450062060    -4.0659514945
   38      C      -5.9884387371    -1.8350770602    -3.0240001372
   39      C      -7.1718428282    -2.2365905786    -3.5797224791
   40      H      -7.4076670829    -1.9143408392    -4.5883496288
   41      C      -8.1300927947    -3.0151947182    -2.8967711238
   42      C      -9.3133402206    -3.3994942584    -3.5320991037
   43      N     -10.2965872957    -3.7096769381    -4.0718970451
   44      C      -5.6703543403    -2.2141816992    -1.6693359944
   45      C      -6.6172915920    -2.9440597854    -0.9752118293
   46      H      -6.4190454366    -3.2552453690     0.0422075574
   47      C      -7.8398205584    -3.3423662326    -1.5205075876
   48      C      -8.7500429796    -4.0520423060    -0.7189424345
   49      N      -9.4965319184    -4.6398908265    -0.0524352643
   50      C      -4.2597587318    -2.1423174972    -1.0892098357
   51      C      -4.2982634774    -2.2802723367     0.4255618638
   52      C      -4.8236556193    -1.3808372275     1.3332666695
   53      H      -5.2930741879    -0.4644481344     0.9951994723
   54      C      -4.7702126432    -1.6934931437     2.6860715051
   55      H      -5.1946509170    -1.0125141532     3.4128056561
   56      C      -4.1970578663    -2.8891444748     3.1116120060
   57      H      -4.1734917763    -3.1242593819     4.1678355515
   58      C      -3.6718324783    -3.7909275719     2.1960188882
   59      H      -3.2400958103    -4.7244555036     2.5349415945
   60      C      -3.7250595679    -3.4785707475     0.8441789392
   61      C      -3.2695504476    -4.2064502848    -0.3379831749
   62      C      -2.6657033061    -5.4475373361    -0.4636098265
   63      H      -2.4603979300    -6.0573127178     0.4078419799
   64      C      -2.3370550974    -5.9044989544    -1.7329481447
   65      H      -1.8718789791    -6.8743155264    -1.8512461601
   66      C      -2.6119777560    -5.1304192366    -2.8559615949
   67      H      -2.3592334244    -5.5058131492    -3.8391698909
   68      C      -3.2196411627    -3.8874575970    -2.7310889778
   69      H      -3.4490260644    -3.3022470448    -3.6126957993
   70      C      -3.5445322496    -3.4309729909    -1.4679023035
   71      C       3.6141608271    -0.5301529149     1.9295236500
   72      H       3.7465085923    -0.3856320503     3.0000055780
   73      H       4.5776522159    -0.3258695727     1.4665775650
   74      H       3.3654127261    -1.5760552202     1.7539365992
   75      C       2.8960389368     1.8752005997     1.6235105283
   76      H       3.0074203094     2.0645992841     2.6910534711
   77      H       3.8386917929     2.1219021001     1.1350610187
   78      H       2.1286243178     2.5475928293     1.2389885594
 ----------------------------------------------------------------

   15   -1855.5366893564      5.86e-09  Convergence criterion met
 Total energy in the final basis set =    -1855.5366893564

         TDDFT/TDA Excitation Energies
 ---------------------------------------------------

 Excited state   1: excitation energy (eV) =    2.9627
 Total energy for state  1:                 -1855.42781326 au
    Multiplicity: Triplet
    Trans. Mom.:  0.0000 X   0.0000 Y   0.0000 Z
    Strength   :     0.0000000000
    D(148) --> V(  1) amplitude = -0.2305
    D(149) --> V(  1) amplitude =  0.3065
    D(150) --> V(  1) amplitude =  0.5081
    D(151) --> V(  1) amplitude = -0.5956
    D(153) --> V(  1) amplitude =  0.2370
    D(157) --> V(  1) amplitude =  0.2278

 Excited state   2: excitation energy (eV) =    3.0286
 Total energy for state  2:                 -1855.42539046 au
    Multiplicity: Singlet
    Trans. Mom.: -0.1347 X  -0.0628 Y  -0.0421 Z
    Strength   :     0.0017707845
    D(158) --> V(  1) amplitude =  0.9980

 Excited state   3: excitation energy (eV) =    3.0287
 Total energy for state  3:                 -1855.42538818 au
    Multiplicity: Triplet
    Trans. Mom.:  0.0000 X   0.0000 Y   0.0000 Z
    Strength   :     0.0000000000
    D(158) --> V(  1) amplitude =  0.9873

 Excited state   4: excitation energy (eV) =    3.3721
 Total energy for state  4:                 -1855.41276873 au
    Multiplicity: Triplet
    Trans. Mom.:  0.0000 X   0.0000 Y   0.0000 Z
    Strength   :     0.0000000000
    D(157) --> V(  2) amplitude = -0.5578
    D(157) --> V(  3) amplitude = -0.5891

 Excited state   5: excitation energy (eV) =    3.4385
 Total energy for state  5:                 -1855.41032833 au
    Multiplicity: Triplet
    Trans. Mom.:  0.0000 X   0.0000 Y   0.0000 Z
    Strength   :     0.0000000000
    D(158) --> V(  6) amplitude =  0.2970
    D(158) --> V(  7) amplitude = -0.5550
    D(158) --> V(  8) amplitude = -0.5988

 Excited state   6: excitation energy (eV) =    3.7207
 Total energy for state  6:                 -1855.39995528 au
    Multiplicity: Triplet
    Trans. Mom.:  0.0000 X   0.0000 Y   0.0000 Z
    Strength   :     0.0000000000
    D(148) --> V(  1) amplitude = -0.2231
    D(149) --> V(  1) amplitude = -0.3527
    D(157) --> V(  1) amplitude =  0.6150
    D(158) --> V(  6) amplitude = -0.2424
    D(158) --> V(  8) amplitude = -0.2464

 Excited state   7: excitation energy (eV) =    3.7337
 Total energy for state  7:                 -1855.39947827 au
    Multiplicity: Triplet
    Trans. Mom.:  0.0000 X   0.0000 Y   0.0000 Z
    Strength   :     0.0000000000
    D(149) --> V(  1) amplitude =  0.2840
    D(157) --> V(  1) amplitude = -0.4216
    D(158) --> V(  4) amplitude = -0.2550
    D(158) --> V(  6) amplitude = -0.3436
    D(158) --> V(  7) amplitude =  0.3008
    D(158) --> V(  8) amplitude = -0.3816

 Excited state   8: excitation energy (eV) =    3.8277
 Total energy for state  8:                 -1855.39602458 au
    Multiplicity: Singlet
    Trans. Mom.:  0.5429 X  -0.1308 Y   0.3319 Z
    Strength   :     0.0395679950
    D(157) --> V(  1) amplitude =  0.9896

 Excited state   9: excitation energy (eV) =    4.0015
 Total energy for state  9:                 -1855.38963767 au
    Multiplicity: Singlet
    Trans. Mom.:  0.1066 X   0.0810 Y  -0.0263 Z
    Strength   :     0.0018246258
    D(158) --> V(  2) amplitude =  0.9422
    D(158) --> V(  3) amplitude =  0.2514

 Excited state  10: excitation energy (eV) =    4.1817
 Total energy for state 10:                 -1855.38301482 au
    Multiplicity: Singlet
    Trans. Mom.: -0.2537 X   0.1054 Y  -0.0540 Z
    Strength   :     0.0080307353
    D(158) --> V(  4) amplitude = -0.7307
    D(158) --> V(  5) amplitude =  0.5033
    D(158) --> V(  6) amplitude = -0.3430

 Excited state  11: excitation energy (eV) =    4.1976
 Total energy for state 11:                 -1855.38243005 au
    Multiplicity: Singlet
    Trans. Mom.: -0.5006 X  -0.1441 Y   0.0698 Z
    Strength   :     0.0284101379
    D(158) --> V(  3) amplitude =  0.5582
    D(158) --> V(  5) amplitude = -0.4317
    D(158) --> V(  6) amplitude = -0.6665

 Excited state  12: excitation energy (eV) =    4.4626
 Total energy for state 12:                 -1855.37269341 au
    Multiplicity: Singlet
    Trans. Mom.:  0.2573 X  -0.0171 Y  -0.5548 Z
    Strength   :     0.0409178120
    D(158) --> V(  2) amplitude = -0.2696
    D(158) --> V(  3) amplitude =  0.7327
    D(158) --> V(  6) amplitude =  0.4876
    D(158) --> V(  7) amplitude = -0.3336

 ---------------------------------------------------

                    Orbital Energies (a.u.)
 --------------------------------------------------------------

 Alpha MOs
 -- Occupied --
-14.677 -14.672 -14.669 -10.531 -10.529 -10.516 -10.514 -10.511
-10.508 -10.502 -10.495 -10.494 -10.493 -10.493 -10.492 -10.483
-10.474 -10.473 -10.472 -10.471 -10.470 -10.467 -10.465 -10.463
-10.462 -10.462 -10.462 -10.461 -10.460 -10.460 -10.460 -10.460
-10.459 -10.458 -10.457 -10.450 -10.449 -10.442 -10.442 -10.441
-10.440 -10.439 -10.437 -10.435 -10.433 -10.422 -10.422  -1.093
 -1.044  -1.031  -1.029  -1.002  -0.983  -0.964  -0.958  -0.956
 -0.936  -0.930  -0.908  -0.899  -0.887  -0.881  -0.855  -0.852
 -0.848  -0.842  -0.835  -0.821  -0.815  -0.806  -0.791  -0.774
 -0.767  -0.743  -0.728  -0.724  -0.711  -0.711  -0.702  -0.686
 -0.678  -0.674  -0.668  -0.667  -0.663  -0.644  -0.614  -0.614
 -0.613  -0.607  -0.596  -0.583  -0.576  -0.567  -0.560  -0.556
 -0.536  -0.535  -0.532  -0.528  -0.527  -0.523  -0.522  -0.519
 -0.512  -0.507  -0.504  -0.501  -0.497  -0.496  -0.493  -0.490
 -0.485  -0.483  -0.481  -0.477  -0.470  -0.462  -0.460  -0.453
 -0.453  -0.449  -0.448  -0.444  -0.439  -0.436  -0.435  -0.431
 -0.427  -0.427  -0.424  -0.420  -0.418  -0.414  -0.412  -0.408
 -0.408  -0.405  -0.401  -0.400  -0.396  -0.395  -0.391  -0.373
 -0.372  -0.363  -0.347  -0.336  -0.324  -0.311  -0.303  -0.299
 -0.296  -0.288  -0.287  -0.284  -0.267  -0.218

          Ground-State Mulliken Net Atomic Charges

     Atom                 Charge (a.u.)
  ----------------------------------------
      1 N                    -0.708423
      2 C                     0.303400
      3 C                     0.296275
      4 C                     0.136152
      5 C                    -0.312603
      6 H                     0.232261
      7 C                    -0.253202
      8 H                     0.229531
      9 C                    -0.249633
     10 H                     0.235433
     11 C                    -0.310973
     12 H                     0.261458
     13 C                     0.128503
     14 C                    -0.310331
     15 H                     0.231350
     16 C                    -0.254728
     17 H                     0.227832
     18 C                    -0.248038
     19 H                     0.232974
     20 C                    -0.322044
     21 H                     0.275058
     22 C                     0.174256
     23 C                    -0.285373
     24 H                     0.286013
     25 C                    -0.218024
     26 H                     0.260829
     27 C                    -0.319935
     28 H                     0.240772
     29 C                     0.224742
     30 C                     0.061145
     31 C                    -0.527996
     32 H                     0.264169
     33 H                     0.258567
     34 C                    -0.201932
     35 C                    -0.549345
     36 H                     0.268217
     37 H                     0.269142
     38 C                     0.142494
     39 C                    -0.321050
     40 H                     0.270935
     41 C                     0.065065
     42 C                     0.011693
     43 N                    -0.199295
     44 C                     0.163120
     45 C                    -0.289426
     46 H                     0.292128
     47 C                     0.074315
     48 C                     0.010722
     49 N                    -0.198655
     50 C                    -0.413992
     51 C                     0.026291
     52 C                    -0.266898
     53 H                     0.246792
     54 C                    -0.251605
     55 H                     0.248833
     56 C                    -0.228936
     57 H                     0.249542
     58 C                    -0.344884
     59 H                     0.238531
     60 C                     0.158797
     61 C                     0.124581
     62 C                    -0.337150
     63 H                     0.238697
     64 C                    -0.235735
     65 H                     0.249261
     66 C                    -0.240916
     67 H                     0.247304
     68 C                    -0.296468
     69 H                     0.239052
     70 C                     0.158272
     71 C                    -0.628485
     72 H                     0.229003
     73 H                     0.228695
     74 H                     0.237455
     75 C                    -0.607058
     76 H                     0.226286
     77 H                     0.225434
     78 H                     0.231758
  ----------------------------------------
  Sum of atomic charges =     0.000000

                    Cartesian Multipole Moments
 -----------------------------------------------------------------
    Charge (ESU x 10^10)
                 0.0000
    Dipole Moment (Debye)
         X       7.4701      Y       4.3240      Z      -0.7931
       Tot       8.6677
    Quadrupole Moments (Debye-Ang)
        XX    -386.8871     XY     -64.3480     YY    -283.4963
        XZ     -10.6630     YZ     -11.5103     ZZ    -245.0039

 Total job time:  9662.28s(wall), 35514.19s(cpu)
        *  Thank you very much for using Q-Chem.  Have a nice day.  *
