 Q-Chem 5.1, Q-Chem, Inc., Pleasanton, CA (2018)
 Q-Chem 5.1.1 for Intel X86 EM64T Linux

User input:
--------------------------------------------------------------
$solvent
dielectric      3.50000000000000000000
dielectric_infi 2.25
$end

$rem
threads 8
jobtype	sp
method PBEh-3c
basis def2-mSVP
mem_static	1024
mem_total	14000
sym_ignore	true
cis_n_roots             2
cis_singlets            true
cis_triplets		false
rpa                     false
calc_soc 		true
cis_moments             true
cis_relaxed_density	true
solvent_method		pcm
$end

$pcm
StateSpecific   1
ChargeSeparation Excited
$end

$molecule
read moms1opt_350.mol
$end

--------------------------------------------------------------

   15   -1855.5437530158      5.88e-09  Convergence criterion met
 Total energy in the final basis set =    -1855.5437530158
 Total job time:  4857.50s(wall), 19311.34s(cpu)
        *  Thank you very much for using Q-Chem.  Have a nice day.  *
 Q-Chem 5.1, Q-Chem, Inc., Pleasanton, CA (2018)
 Q-Chem 5.1.1 for Intel X86 EM64T Linux

User input:
--------------------------------------------------------------
$rem
threads 8
jobtype sp
method PBEh-3c
basis def2-mSVP
mem_static      1024
mem_total       14000
sym_ignore      true
cis_n_roots             6
cis_singlets            true
cis_triplets            true
rpa                     false
calc_soc                true
cis_moments             true
cis_relaxed_density     true
solvent_method          pcm
$end

$molecule
read
$end

$pcm
statespecific           Marcus
$end

$solvent
dielectric      3.50000000000000000000
dielectric_infi 2.25
$end

--------------------------------------------------------------

             Standard Nuclear Orientation (Angstroms)
    I     Atom           X                Y                Z
 ----------------------------------------------------------------
    1      N       0.0000000000     0.0000000000     0.0000000000
    2      C       0.0000000000     0.0000000000     1.3786430000
    3      C       1.1604187343     0.0000000000    -0.7457273424
    4      C       2.4044086157     0.1870234884    -0.1175684415
    5      C       3.5293792103     0.2365832769    -0.9281321903
    6      H       4.5000220287     0.4122909085    -0.4852145210
    7      C       3.4456993877     0.0719190798    -2.3013345946
    8      H       4.3440304528     0.1150116098    -2.9017952420
    9      C       2.2116100814    -0.1595606405    -2.9053474300
   10      H       2.1431016240    -0.3153339832    -3.9727910065
   11      C       1.0737757978    -0.1940343930    -2.1390462422
   12      H       0.1196586916    -0.3862003511    -2.6069870909
   13      C       1.2154574809     0.1319002631     2.0776722710
   14      C       1.1639094519     0.1200455895     3.4637354011
   15      H       2.0753820508     0.2415784945     4.0319082339
   16      C      -0.0304021304    -0.0264525377     4.1505651772
   17      H      -0.0298198085    -0.0374349033     5.2319272531
   18      C      -1.2272276902    -0.1437429903     3.4484615137
   19      H      -2.1670932001    -0.2515013186     3.9715209328
   20      C      -1.2205469086    -0.1178280038     2.0769615969
   21      H      -2.1606612239    -0.2004733239     1.5529165036
   22      C      -1.2515507276     0.0834735574    -0.6982982171
   23      C      -2.0934030426    -1.0045266355    -0.7524647495
   24      H      -1.7836505186    -1.9282105897    -0.2799002919
   25      C      -1.6019735346     1.2909395982    -1.2829968896
   26      H      -0.9486636274     2.1519153921    -1.2282162303
   27      C      -2.8026741709     1.3493922257    -1.9546483225
   28      H      -3.0777245606     2.2711884277    -2.4519808176
   29      C      -3.3474147259    -0.9235146282    -1.3664671011
   30      C      -3.6833676337     0.2641489504    -2.0219932329
   31      C      -4.9075064699     0.4225755494    -2.8761590654
   32      H      -4.7772797520     1.3157882538    -3.4898166122
   33      H      -5.7953513407     0.6011006616    -2.2634108552
   34      C       2.5232281204     0.3889305346     1.3712135803
   35      C      -5.1431952203    -0.7993185826    -3.7685578963
   36      H      -5.6555755087    -0.4913496995    -4.6814211969
   37      H      -4.1718112513    -1.1956466705    -4.0882795294
   38      C      -5.9827581121    -1.8120119948    -3.0560223358
   39      C      -7.1644697255    -2.2073683732    -3.6189632639
   40      H      -7.4031526094    -1.8637584124    -4.6198039706
   41      C      -8.1174378648    -3.0079372456    -2.9518662304
   42      C      -9.2990795526    -3.3864773453    -3.5911489311
   43      N     -10.2838894809    -3.6949905480    -4.1305468120
   44      C      -5.6590606442    -2.2215280218    -1.7113820823
   45      C      -6.5995731690    -2.9703683626    -1.0316043733
   46      H      -6.3972895732    -3.3024863783    -0.0216331516
   47      C      -7.8227876662    -3.3642749575    -1.5835064651
   48      C      -8.7279401963    -4.0963760284    -0.7990314734
   49      N      -9.4748307220    -4.7040786573    -0.1498065713
   50      C      -4.2491484218    -2.1465845170    -1.1268047728
   51      C      -4.2904809362    -2.3117714059     0.3852212799
   52      C      -4.8177194850    -1.4293047748     1.3084121503
   53      H      -5.2845886978    -0.5054035479     0.9876291955
   54      C      -4.7641828420    -1.7660161056     2.6554397865
   55      H      -5.1862588971    -1.0968858662     3.3943964905
   56      C      -3.7153502373    -3.5161098191     0.7830920025
   57      C      -3.6627422282    -3.8532316436     2.1290993165
   58      H      -3.2276515086    -4.7910686851     2.4514505152
   59      C      -4.1899623057    -2.9685047959     3.0601720415
   60      H      -4.1643721475    -3.2207884742     4.1123528088
   61      C      -3.2532648916    -4.2202009442    -0.4109682192
   62      C      -2.6420514912    -5.4556443144    -0.5569099605
   63      H      -2.4363477306    -6.0798825316     0.3041534371
   64      C      -2.3046636400    -5.8867547306    -1.8331472014
   65      H      -1.8324785255    -6.8511714611    -1.9671537153
   66      C      -2.5773548874    -5.0928415378    -2.9428089517
   67      H      -2.3156372681    -5.4470990246    -3.9315081012
   68      C      -3.1925795992    -3.8554462972    -2.7972136366
   69      H      -3.4168453396    -3.2533015720    -3.6687799999
   70      C      -3.5269531775    -3.4252619180    -1.5274032114
   71      C       3.6106962207    -0.5441399086     1.9286338696
   72      H       3.7417022167    -0.4018072347     2.9995454747
   73      H       4.5753553627    -0.3422158483     1.4671267408
   74      H       3.3576994858    -1.5886291298     1.7504518182
   75      C       2.9039304469     1.8649121935     1.6246869115
   76      H       3.0156913466     2.0516152815     2.6926241160
   77      H       3.8480546880     2.1065140407     1.1366128709
   78      H       2.1396608057     2.5409684444     1.2402803488
 ----------------------------------------------------------------

   15   -1855.5347190873      6.16e-09  Convergence criterion met
 Total energy in the final basis set =    -1855.5347190873

         TDDFT/TDA Excitation Energies
 ---------------------------------------------------

 Excited state   1: excitation energy (eV) =    2.7133
 Total energy for state  1:                 -1855.43500894 au
    Multiplicity: Triplet
    Trans. Mom.:  0.0000 X   0.0000 Y   0.0000 Z
    Strength   :     0.0000000000
    D(158) --> V(  1) amplitude =  0.9977

 Excited state   2: excitation energy (eV) =    2.7146
 Total energy for state  2:                 -1855.43495943 au
    Multiplicity: Singlet
    Trans. Mom.: -0.1381 X  -0.0628 Y  -0.0464 Z
    Strength   :     0.0016736008
    D(158) --> V(  1) amplitude =  0.9984

 Excited state   3: excitation energy (eV) =    2.9524
 Total energy for state  3:                 -1855.42622005 au
    Multiplicity: Triplet
    Trans. Mom.:  0.0000 X   0.0000 Y   0.0000 Z
    Strength   :     0.0000000000
    D(148) --> V(  1) amplitude =  0.2122
    D(149) --> V(  1) amplitude = -0.4438
    D(150) --> V(  1) amplitude = -0.5484
    D(151) --> V(  1) amplitude = -0.5144
    D(157) --> V(  1) amplitude =  0.2472

 Excited state   4: excitation energy (eV) =    3.3648
 Total energy for state  4:                 -1855.41106431 au
    Multiplicity: Triplet
    Trans. Mom.:  0.0000 X   0.0000 Y   0.0000 Z
    Strength   :     0.0000000000
    D(157) --> V(  1) amplitude =  0.2769
    D(157) --> V(  2) amplitude =  0.4545
    D(157) --> V(  3) amplitude =  0.6336

 Excited state   5: excitation energy (eV) =    3.4381
 Total energy for state  5:                 -1855.40837177 au
    Multiplicity: Triplet
    Trans. Mom.:  0.0000 X   0.0000 Y   0.0000 Z
    Strength   :     0.0000000000
    D(158) --> V(  6) amplitude =  0.2818
    D(158) --> V(  7) amplitude = -0.4362
    D(158) --> V(  8) amplitude = -0.6578
    D(158) --> V(  9) amplitude =  0.2844

 Excited state   6: excitation energy (eV) =    3.6153
 Total energy for state  6:                 -1855.40185819 au
    Multiplicity: Triplet
    Trans. Mom.:  0.0000 X   0.0000 Y   0.0000 Z
    Strength   :     0.0000000000
    D(149) --> V(  1) amplitude =  0.3181
    D(157) --> V(  1) amplitude =  0.8257
    D(157) --> V(  3) amplitude = -0.2285

 Excited state   7: excitation energy (eV) =    3.6664
 Total energy for state  7:                 -1855.39998180 au
    Multiplicity: Singlet
    Trans. Mom.:  0.5264 X  -0.1405 Y   0.3051 Z
    Strength   :     0.0350232387
    D(157) --> V(  1) amplitude =  0.9901

 Excited state   8: excitation energy (eV) =    3.7281
 Total energy for state  8:                 -1855.39771548 au
    Multiplicity: Triplet
    Trans. Mom.:  0.0000 X   0.0000 Y   0.0000 Z
    Strength   :     0.0000000000
    D(152) --> V(  6) amplitude = -0.2271
    D(158) --> V(  4) amplitude = -0.2424
    D(158) --> V(  5) amplitude =  0.3185
    D(158) --> V(  6) amplitude = -0.3927
    D(158) --> V(  7) amplitude =  0.3884
    D(158) --> V(  8) amplitude = -0.4068

 Excited state   9: excitation energy (eV) =    3.8041
 Total energy for state  9:                 -1855.39492008 au
    Multiplicity: Singlet
    Trans. Mom.: -0.1039 X  -0.0682 Y   0.0046 Z
    Strength   :     0.0014411437
    D(158) --> V(  2) amplitude =  0.9530
    D(158) --> V(  3) amplitude =  0.2625

 Excited state  10: excitation energy (eV) =    4.0898
 Total energy for state 10:                 -1855.38442340 au
    Multiplicity: Singlet
    Trans. Mom.:  0.4444 X   0.0614 Y   0.0374 Z
    Strength   :     0.0203104527
    D(158) --> V(  3) amplitude =  0.7312
    D(158) --> V(  4) amplitude = -0.2350
    D(158) --> V(  6) amplitude = -0.5811

 Excited state  11: excitation energy (eV) =    4.1116
 Total energy for state 11:                 -1855.38362118 au
    Multiplicity: Singlet
    Trans. Mom.:  0.0203 X  -0.1493 Y   0.0788 Z
    Strength   :     0.0029132774
    D(158) --> V(  4) amplitude = -0.5342
    D(158) --> V(  5) amplitude =  0.7964

 Excited state  12: excitation energy (eV) =    4.2899
 Total energy for state 12:                 -1855.37706739 au
    Multiplicity: Singlet
    Trans. Mom.: -0.3769 X  -0.0358 Y   0.1007 Z
    Strength   :     0.0161330155
    D(153) --> V(  1) amplitude =  0.2162
    D(154) --> V(  1) amplitude = -0.3262
    D(158) --> V(  2) amplitude = -0.2282
    D(158) --> V(  3) amplitude =  0.5363
    D(158) --> V(  6) amplitude =  0.6338
    D(158) --> V(  7) amplitude = -0.2156

 ---------------------------------------------------

                    Orbital Energies (a.u.)
 --------------------------------------------------------------

 Alpha MOs
 -- Occupied --
-14.680 -14.677 -14.673 -10.537 -10.536 -10.526 -10.523 -10.515
-10.509 -10.507 -10.500 -10.498 -10.492 -10.488 -10.487 -10.481
-10.476 -10.472 -10.472 -10.472 -10.470 -10.468 -10.464 -10.462
-10.462 -10.462 -10.461 -10.460 -10.460 -10.460 -10.459 -10.459
-10.457 -10.455 -10.454 -10.444 -10.444 -10.436 -10.436 -10.435
-10.435 -10.434 -10.433 -10.429 -10.428 -10.416 -10.415  -1.089
 -1.051  -1.038  -1.033  -1.007  -0.981  -0.965  -0.954  -0.951
 -0.938  -0.932  -0.902  -0.902  -0.888  -0.882  -0.854  -0.852
 -0.843  -0.842  -0.830  -0.821  -0.810  -0.807  -0.790  -0.775
 -0.760  -0.745  -0.728  -0.725  -0.708  -0.707  -0.699  -0.687
 -0.679  -0.675  -0.668  -0.663  -0.661  -0.644  -0.614  -0.609
 -0.608  -0.607  -0.598  -0.584  -0.576  -0.567  -0.558  -0.556
 -0.539  -0.534  -0.529  -0.527  -0.527  -0.521  -0.517  -0.516
 -0.512  -0.507  -0.503  -0.500  -0.497  -0.496  -0.490  -0.488
 -0.483  -0.481  -0.477  -0.472  -0.468  -0.467  -0.462  -0.461
 -0.456  -0.448  -0.446  -0.445  -0.442  -0.436  -0.430  -0.430
 -0.429  -0.428  -0.419  -0.417  -0.416  -0.415  -0.414  -0.410
 -0.408  -0.407  -0.401  -0.400  -0.393  -0.393  -0.388  -0.367
 -0.367  -0.357  -0.348  -0.339  -0.328  -0.312  -0.305  -0.296
 -0.295  -0.284  -0.282  -0.279  -0.268  -0.213

          Ground-State Mulliken Net Atomic Charges

     Atom                 Charge (a.u.)
  ----------------------------------------
      1 N                    -0.708346
      2 C                     0.305680
      3 C                     0.298887
      4 C                     0.134931
      5 C                    -0.314546
      6 H                     0.236874
      7 C                    -0.255766
      8 H                     0.232505
      9 C                    -0.252227
     10 H                     0.237667
     11 C                    -0.313015
     12 H                     0.261198
     13 C                     0.128025
     14 C                    -0.312342
     15 H                     0.236273
     16 C                    -0.257136
     17 H                     0.231067
     18 C                    -0.251432
     19 H                     0.234435
     20 C                    -0.323326
     21 H                     0.272568
     22 C                     0.171680
     23 C                    -0.282436
     24 H                     0.286423
     25 C                    -0.216831
     26 H                     0.266099
     27 C                    -0.322743
     28 H                     0.244431
     29 C                     0.223903
     30 C                     0.060539
     31 C                    -0.530044
     32 H                     0.268517
     33 H                     0.256924
     34 C                    -0.199889
     35 C                    -0.550735
     36 H                     0.269963
     37 H                     0.273573
     38 C                     0.140668
     39 C                    -0.323418
     40 H                     0.275347
     41 C                     0.060119
     42 C                     0.012322
     43 N                    -0.207879
     44 C                     0.167166
     45 C                    -0.292245
     46 H                     0.294575
     47 C                     0.070530
     48 C                     0.011571
     49 N                    -0.206483
     50 C                    -0.414253
     51 C                     0.027271
     52 C                    -0.269233
     53 H                     0.249068
     54 C                    -0.252537
     55 H                     0.252505
     56 C                     0.156874
     57 C                    -0.347383
     58 H                     0.243051
     59 C                    -0.232096
     60 H                     0.253676
     61 C                     0.123153
     62 C                    -0.339672
     63 H                     0.243715
     64 C                    -0.239407
     65 H                     0.253252
     66 C                    -0.244540
     67 H                     0.251202
     68 C                    -0.300577
     69 H                     0.242241
     70 C                     0.155305
     71 C                    -0.631038
     72 H                     0.230901
     73 H                     0.230759
     74 H                     0.236790
     75 C                    -0.609887
     76 H                     0.227634
     77 H                     0.227149
     78 H                     0.232453
  ----------------------------------------
  Sum of atomic charges =    -0.000000

                    Cartesian Multipole Moments
 -----------------------------------------------------------------
    Charge (ESU x 10^10)
                -0.0000
    Dipole Moment (Debye)
         X       8.4286      Y       4.8850      Z      -0.5026
       Tot       9.7548
    Quadrupole Moments (Debye-Ang)
        XX    -394.8863     XY     -69.3035     YY    -285.3227
        XZ     -13.7026     YZ     -13.2591     ZZ    -244.8162

 Total job time:  10892.82s(wall), 37246.15s(cpu)
        *  Thank you very much for using Q-Chem.  Have a nice day.  *
