 Q-Chem 5.0, Q-Chem, Inc., Pleasanton, CA (2017)
 Q-Chem 5.0.1 for Intel X86 EM64T Linux

User input:
--------------------------------------------------------------
$rem
threads 8
jobtype	sp
method PBEh-3c
basis def2-mSVP
mem_static	1024
mem_total	10000
sym_ignore	true
cis_n_roots             6
cis_singlets            true
cis_triplets		true
rpa                     false
calc_soc 		true
cis_moments             true
cis_relaxed_density	true
$end

$molecule
read gsopt.mol
$end

--------------------------------------------------------------

             Standard Nuclear Orientation (Angstroms)
    I     Atom           X                Y                Z
 ----------------------------------------------------------------
    1      S       0.0000000000     0.0000000000     0.0000000000
    2      C       0.0000000000     0.0000000000     1.7564610000
    3      C       1.2035822048     0.0000000000     2.4437623199
    4      H       2.1260978772     0.1122082158     1.8886905888
    5      C       1.2303078844    -0.1661018897     3.8196144596
    6      H       2.1739462407    -0.1830443328     4.3474843641
    7      C       0.0341426938    -0.3106638820     4.5000448694
    8      H       0.0290208584    -0.4389000566     5.5752637023
    9      C      -1.1751569281    -0.2708919414     3.8233649158
   10      H      -2.0895239084    -0.3718397405     4.3898288638
   11      C      -1.2146807071    -0.1112261730     2.4368614877
   12      N      -2.4264792709    -0.0700562516     1.7285021453
   13      C      -2.5700968182     0.7189356993     0.5786226049
   14      C      -3.7816445260     1.3196157765     0.2425681474
   15      H      -4.6546099090     1.1672648000     0.8612743638
   16      C      -3.8890183582     2.1047755663    -0.8948536686
   17      H      -4.8451209088     2.5501994358    -1.1358901862
   18      C      -2.7897923231     2.3318020382    -1.7041811430
   19      H      -2.8691095160     2.9573488980    -2.5824674642
   20      C      -1.5802012290     1.7376889889    -1.3790962035
   21      H      -0.7077371589     1.8936336640    -2.0005520397
   22      C      -1.4770486085     0.9161336488    -0.2686922151
   23      C      -3.5917284605    -0.4430171693     2.4534119163
   24      C      -4.0348736687    -1.7505762146     2.3838083194
   25      H      -3.5304061748    -2.4432195117     1.7206345822
   26      C      -4.2219488101     0.4586606266     3.3001024273
   27      H      -3.8610022728     1.4797378471     3.3564072197
   28      C      -5.2639517919     0.0462345837     4.1181450126
   29      C      -5.0740209979    -2.1870467379     3.2004436402
   30      C      -5.6789659331    -1.2929197131     4.0897776621
   31      C      -5.8953693013     1.0132974324     5.0823575816
   32      H      -5.4323670936     1.9975461188     5.0246752059
   33      H      -6.9622683205     1.1384042814     4.8895289510
   34      H      -5.7986692672     0.6681183960     6.1148900529
   35      C      -5.5296554256    -3.6213166615     3.1319249430
   36      H      -4.7168239738    -4.2462743359     2.7547907600
   37      H      -5.7466551449    -3.9932188569     4.1382542568
   38      C      -6.7611258574    -3.8068918502     2.2483779017
   39      H      -7.6176260788    -3.2575946817     2.6389139510
   40      H      -6.5728304293    -3.4535494598     1.2343578978
   41      H      -7.0436834311    -4.8584373680     2.1903814039
   42      B      -6.6681021896    -1.7916370817     5.2051585174
   43      C      -8.2090146706    -1.6320910161     5.1018653088
   44      C      -8.7959696618    -1.0540576202     3.9713181145
   45      H      -8.1652693429    -0.7284426832     3.1510182065
   46      C     -10.1704531200    -0.8965805300     3.9040227087
   47      C     -10.9764119957    -1.3235437641     4.9817143277
   48      C     -10.4091367072    -1.9034178373     6.0995361621
   49      H     -11.0348294079    -2.2311773962     6.9226441270
   50      C      -9.0260401296    -2.0630424890     6.1752035517
   51      C     -12.3700179394    -1.0330022318     4.6657411047
   52      C     -13.5646110709    -1.2041698356     5.3140103337
   53      H     -13.6246297321    -1.6512865018     6.2990421490
   54      C     -12.3640125582    -0.4386064548     3.3917206761
   55      C     -13.5082946826    -0.0070238940     2.7326022041
   56      C     -11.0557731922    -0.3307095513     2.8818081995
   57      C     -10.8874088714     0.2361919170     1.6469132032
   58      H      -9.9084882482     0.3499806232     1.1985523127
   59      C     -14.7463360194    -0.7751888010     4.6668158853
   60      H     -15.6923458534    -0.9072904586     5.1754499573
   61      C     -14.7327568670    -0.1963059310     3.4190776182
   62      H     -15.6634774674     0.1174182674     2.9628246071
   63      C     -13.3050679523     0.5725168498     1.4577241861
   64      H     -14.1504048056     0.9309170415     0.8835207215
   65      C     -12.0331920537     0.6832873841     0.9460221117
   66      H     -11.8979458203     1.1299666762    -0.0299993761
   67      B      -8.3954000294    -2.7071987277     7.4419660882
   68      C      -6.8567745897    -2.8402682874     7.5529393645
   69      C      -6.2833180034    -3.3749418502     8.7084898171
   70      H      -6.9200994730    -3.7095423728     9.5208444654
   71      C      -4.9090595153    -3.4693040931     8.8152725034
   72      C      -4.0813539940    -3.0390373894     7.7552565038
   73      C      -4.6419787985    -2.5122982279     6.6069638521
   74      H      -4.0028049664    -2.1790149040     5.7982462907
   75      C      -6.0310413212    -2.4051793946     6.4895569560
   76      C      -4.0555552695    -3.9567966959     9.8982216895
   77      C      -4.2681385667    -4.4784175627    11.1477273410
   78      H      -5.2640125280    -4.6183756026    11.5502053377
   79      C      -2.7318622483    -3.8039624932     9.4468219897
   80      C      -1.6101430255    -4.1527082117    10.1909744176
   81      C      -2.6886193453    -3.2566714761     8.1515244362
   82      C      -1.4647127634    -3.0559702164     7.5695623213
   83      H      -1.3639247906    -2.6490807469     6.5707627161
   84      C      -3.1457617280    -4.8406115593    11.9290243707
   85      H      -3.3135993448    -5.2511776182    12.9162362962
   86      C      -1.8554562351    -4.6886235769    11.4785522303
   87      H      -1.0266840983    -4.9801202003    12.1121425639
   88      C      -0.3586695487    -3.9308452284     9.5690768988
   89      H       0.5572068358    -4.1800548468    10.0908555314
   90      C      -0.3035254804    -3.4020107959     8.3008141823
   91      H       0.6625529212    -3.2445524281     7.8397289618
   92      C      -9.3311716030    -3.2370965854     8.5902083561
   93      C      -9.7703615331    -2.3941562629     9.6130001301
   94      C     -10.6536445184    -2.8759058492    10.5760640991
   95      H     -11.0148120963    -2.2268438860    11.3661685058
   96      C     -11.0966952719    -4.1821225692    10.5331960350
   97      C     -10.6424823864    -5.0326121438     9.5326758712
   98      H     -10.9901914204    -6.0598725697     9.5104202473
   99      C      -9.7663569824    -4.5719665966     8.5617283041
  100      N     -12.0238542627    -4.6283526907    11.5176446674
  101      C     -11.5264516523    -5.3453304316    12.6159539168
  102      C     -10.2316991840    -5.8614159031    12.6372159100
  103      H      -9.5699237147    -5.7026984981    11.7983009496
  104      C      -9.7662938606    -6.5673956752    13.7364929170
  105      H      -8.7521179607    -6.9443517807    13.7268673999
  106      C     -10.5857995906    -6.8036906126    14.8257564890
  107      H     -10.2285370927    -7.3663427721    15.6773388690
  108      C     -11.8768230779    -6.3000745005    14.8146448954
  109      H     -12.5363406941    -6.4644332793    15.6574448719
  110      C     -12.3321848254    -5.5546069778    13.7394038012
  111      C     -13.3810871314    -4.6894621752    11.1654690035
  112      C     -13.8087482669    -4.6074819193     9.8415243371
  113      H     -13.0898948866    -4.4748556108     9.0462958021
  114      C     -15.1569846507    -4.6834369646     9.5255897395
  115      H     -15.4572541435    -4.6091939637     8.4887643304
  116      C     -16.1073916451    -4.8704864744    10.5135347833
  117      H     -17.1574295338    -4.9455596626    10.2664466822
  118      C     -15.6945559115    -4.9563175929    11.8334844673
  119      H     -16.4181209032    -5.0979290605    12.6263890337
  120      C     -14.3536695354    -4.8382059584    12.1600154337
  121      C      -9.2941844726    -5.4968952079     7.4756406788
  122      H      -9.7400654005    -6.4862875235     7.5701085481
  123      H      -8.2095888193    -5.6206988417     7.5006433713
  124      H      -9.5507249541    -5.1149877788     6.4849686134
  125      C      -9.2866279639    -0.9716899473     9.7271034764
  126      H     -10.1336412534    -0.3145962488     9.9418867657
  127      H      -8.8793548009    -0.6252448495     8.7731288897
  128      C      -8.2311319964    -0.8087394430    10.8181421496
  129      H      -7.3495305240    -1.4139381784    10.6066810495
  130      H      -7.9099059754     0.2297961275    10.8999956579
  131      H      -8.6185889931    -1.1154509264    11.7903170691
  132      S     -13.8860196754    -4.7424002892    13.8520802475
 ----------------------------------------------------------------

   15   -3799.4276096167      7.00E-09 Convergence criterion met
 Total energy in the final basis set = -3799.42760962

         TDDFT/TDA Excitation Energies
 ---------------------------------------------------

 Excited state   1: excitation energy (eV) =    2.3330
 Total energy for state  1:                 -3799.34187515 au
    Multiplicity: Triplet
    Trans. Mom.:  0.0000 X   0.0000 Y   0.0000 Z
    Strength   :     0.0000000000
    D(273) --> V(  1) amplitude =  0.8906

 Excited state   2: excitation energy (eV) =    2.4864
 Total energy for state  2:                 -3799.33623738 au
    Multiplicity: Triplet
    Trans. Mom.:  0.0000 X   0.0000 Y   0.0000 Z
    Strength   :     0.0000000000
    D(270) --> V(  2) amplitude = -0.4938
    D(274) --> V(  1) amplitude =  0.7642
    D(274) --> V(  4) amplitude =  0.2270

 Excited state   3: excitation energy (eV) =    2.5367
 Total energy for state  3:                 -3799.33438722 au
    Multiplicity: Triplet
    Trans. Mom.:  0.0000 X   0.0000 Y   0.0000 Z
    Strength   :     0.0000000000
    D(270) --> V(  1) amplitude = -0.7177
    D(270) --> V(  4) amplitude = -0.2527
    D(274) --> V(  2) amplitude =  0.5585

 Excited state   4: excitation energy (eV) =    2.6788
 Total energy for state  4:                 -3799.32916582 au
    Multiplicity: Triplet
    Trans. Mom.:  0.0000 X   0.0000 Y   0.0000 Z
    Strength   :     0.0000000000
    D(276) --> V(  1) amplitude =  0.9963

 Excited state   5: excitation energy (eV) =    2.6791
 Total energy for state  5:                 -3799.32915435 au
    Multiplicity: Singlet
    Trans. Mom.: -0.0005 X  -0.0028 Y  -0.0011 Z
    Strength   :     0.0000006261
    D(276) --> V(  1) amplitude =  0.9980

 Excited state   6: excitation energy (eV) =    2.6815
 Total energy for state  6:                 -3799.32906800 au
    Multiplicity: Triplet
    Trans. Mom.:  0.0000 X   0.0000 Y   0.0000 Z
    Strength   :     0.0000000000
    D(275) --> V(  1) amplitude =  0.9939

 Excited state   7: excitation energy (eV) =    2.6821
 Total energy for state  7:                 -3799.32904529 au
    Multiplicity: Singlet
    Trans. Mom.:  0.0122 X   0.0041 Y  -0.0165 Z
    Strength   :     0.0000286850
    D(275) --> V(  1) amplitude =  0.9967

 Excited state   8: excitation energy (eV) =    2.7656
 Total energy for state  8:                 -3799.32597473 au
    Multiplicity: Triplet
    Trans. Mom.:  0.0000 X   0.0000 Y   0.0000 Z
    Strength   :     0.0000000000
    D(265) --> V(  1) amplitude = -0.4149
    D(266) --> V(  1) amplitude =  0.4042
    D(267) --> V(  1) amplitude = -0.3562
    D(273) --> V(  2) amplitude =  0.5585

 Excited state   9: excitation energy (eV) =    3.0015
 Total energy for state  9:                 -3799.31730677 au
    Multiplicity: Singlet
    Trans. Mom.:  0.0722 X  -0.0356 Y   0.0592 Z
    Strength   :     0.0007342900
    D(273) --> V(  1) amplitude =  0.9481

 Excited state  10: excitation energy (eV) =    3.2809
 Total energy for state 10:                 -3799.30703731 au
    Multiplicity: Singlet
    Trans. Mom.: -2.7277 X   0.9340 Y  -1.6675 Z
    Strength   :     0.8916846410
    D(274) --> V(  1) amplitude =  0.9315

 Excited state  11: excitation energy (eV) =    3.6808
 Total energy for state 11:                 -3799.29234449 au
    Multiplicity: Singlet
    Trans. Mom.: -0.0077 X   0.0024 Y  -0.0037 Z
    Strength   :     0.0000070289
    D(276) --> V(  2) amplitude =  0.9978

 Excited state  12: excitation energy (eV) =    3.6842
 Total energy for state 12:                 -3799.29221889 au
    Multiplicity: Singlet
    Trans. Mom.:  0.0082 X   0.0002 Y  -0.0007 Z
    Strength   :     0.0000061305
    D(275) --> V(  2) amplitude =  0.9949

 ---------------------------------------------------

                    Orbital Energies (a.u.)
 --------------------------------------------------------------

 Alpha MOs
 -- Occupied --
-89.593 -89.592 -14.681 -14.681 -10.501 -10.500 -10.500 -10.500
-10.489 -10.488 -10.479 -10.478 -10.478 -10.478 -10.471 -10.471
-10.471 -10.470 -10.470 -10.470 -10.470 -10.470 -10.469 -10.469
-10.468 -10.468 -10.468 -10.467 -10.467 -10.466 -10.466 -10.465
-10.465 -10.465 -10.465 -10.465 -10.464 -10.464 -10.463 -10.461
-10.461 -10.461 -10.461 -10.460 -10.453 -10.452 -10.452 -10.452
-10.452 -10.451 -10.450 -10.450 -10.449 -10.449 -10.448 -10.448
-10.448 -10.448 -10.447 -10.447 -10.446 -10.446 -10.445 -10.444
-10.443 -10.443 -10.443 -10.443 -10.443 -10.442 -10.442 -10.441
-10.437 -10.437 -10.436 -10.435 -10.428 -10.427  -8.232  -8.232
 -6.959  -6.957  -6.123  -6.123  -6.120  -6.120  -6.114  -6.114
 -1.091  -1.089  -1.023  -1.022  -0.977  -0.977  -0.969  -0.967
 -0.967  -0.966  -0.954  -0.953  -0.939  -0.939  -0.916  -0.908
 -0.901  -0.900  -0.893  -0.892  -0.869  -0.863  -0.861  -0.858
 -0.856  -0.856  -0.853  -0.852  -0.844  -0.843  -0.830  -0.824
 -0.822  -0.821  -0.819  -0.812  -0.811  -0.810  -0.777  -0.777
 -0.766  -0.765  -0.742  -0.738  -0.733  -0.727  -0.722  -0.721
 -0.717  -0.715  -0.710  -0.710  -0.695  -0.686  -0.685  -0.681
 -0.680  -0.672  -0.661  -0.655  -0.653  -0.652  -0.649  -0.648
 -0.634  -0.634  -0.617  -0.616  -0.602  -0.602  -0.598  -0.595
 -0.591  -0.591  -0.590  -0.582  -0.581  -0.564  -0.563  -0.560
 -0.555  -0.550  -0.545  -0.545  -0.539  -0.538  -0.535  -0.533
 -0.528  -0.526  -0.525  -0.522  -0.518  -0.516  -0.509  -0.508
 -0.506  -0.502  -0.501  -0.500  -0.499  -0.498  -0.497  -0.497
 -0.495  -0.491  -0.490  -0.489  -0.486  -0.485  -0.484  -0.483
 -0.482  -0.480  -0.478  -0.477  -0.476  -0.475  -0.474  -0.470
 -0.465  -0.461  -0.456  -0.453  -0.449  -0.448  -0.447  -0.446
 -0.443  -0.440  -0.436  -0.432  -0.431  -0.430  -0.430  -0.429
 -0.427  -0.426  -0.425  -0.418  -0.417  -0.416  -0.406  -0.405
 -0.404  -0.402  -0.401  -0.401  -0.400  -0.399  -0.398  -0.396
 -0.393  -0.391  -0.388  -0.388  -0.386  -0.380  -0.379  -0.376
 -0.370  -0.369  -0.365  -0.358  -0.356  -0.349  -0.344  -0.344
 -0.326  -0.320  -0.304  -0.303  -0.301  -0.300  -0.297  -0.296
 -0.288  -0.286  -0.285  -0.285  -0.283  -0.268  -0.266  -0.265
 -0.263  -0.262  -0.223  -0.222

          Ground-State Mulliken Net Atomic Charges

     Atom                 Charge (a.u.)
  ----------------------------------------
      1 S                     0.145331
      2 C                    -0.188345
      3 C                    -0.248302
      4 H                     0.232014
      5 C                    -0.230362
      6 H                     0.218317
      7 C                    -0.230798
      8 H                     0.219636
      9 C                    -0.294293
     10 H                     0.257020
     11 C                     0.418713
     12 N                    -0.703142
     13 C                     0.427551
     14 C                    -0.300848
     15 H                     0.255389
     16 C                    -0.222100
     17 H                     0.218774
     18 C                    -0.232183
     19 H                     0.218959
     20 C                    -0.247205
     21 H                     0.231938
     22 C                    -0.196171
     23 C                     0.208408
     24 C                    -0.307013
     25 H                     0.225983
     26 C                    -0.324018
     27 H                     0.239926
     28 C                     0.037513
     29 C                     0.070112
     30 C                    -0.201780
     31 C                    -0.762887
     32 H                     0.242228
     33 H                     0.248742
     34 H                     0.249833
     35 C                    -0.547747
     36 H                     0.235793
     37 H                     0.251903
     38 C                    -0.646377
     39 H                     0.239266
     40 H                     0.221200
     41 H                     0.222497
     42 B                     0.678781
     43 C                    -0.145172
     44 C                    -0.405823
     45 H                     0.231012
     46 C                     0.109280
     47 C                     0.089700
     48 C                    -0.378328
     49 H                     0.228730
     50 C                    -0.159873
     51 C                     0.197134
     52 C                    -0.377043
     53 H                     0.221281
     54 C                    -0.062472
     55 C                     0.253578
     56 C                     0.197480
     57 C                    -0.385185
     58 H                     0.218703
     59 C                    -0.206321
     60 H                     0.229640
     61 C                    -0.331883
     62 H                     0.222643
     63 C                    -0.336273
     64 H                     0.222936
     65 C                    -0.203035
     66 H                     0.228691
     67 B                     0.691036
     68 C                    -0.151071
     69 C                    -0.393585
     70 H                     0.228946
     71 C                     0.092492
     72 C                     0.105760
     73 C                    -0.379779
     74 H                     0.233019
     75 C                    -0.151318
     76 C                     0.199342
     77 C                    -0.380435
     78 H                     0.218651
     79 C                    -0.063053
     80 C                     0.251941
     81 C                     0.200999
     82 C                    -0.392034
     83 H                     0.229335
     84 C                    -0.204527
     85 H                     0.228877
     86 C                    -0.332559
     87 H                     0.222675
     88 C                    -0.334486
     89 H                     0.222669
     90 C                    -0.206419
     91 H                     0.229707
     92 C                    -0.217564
     93 C                     0.065914
     94 C                    -0.301509
     95 H                     0.225998
     96 C                     0.224037
     97 C                    -0.331660
     98 H                     0.238569
     99 C                     0.044849
    100 N                    -0.712571
    101 C                     0.422867
    102 C                    -0.295982
    103 H                     0.252242
    104 C                    -0.222438
    105 H                     0.217190
    106 C                    -0.231560
    107 H                     0.218748
    108 C                    -0.247641
    109 H                     0.231563
    110 C                    -0.190562
    111 C                     0.422093
    112 C                    -0.296129
    113 H                     0.253356
    114 C                    -0.223958
    115 H                     0.217541
    116 C                    -0.231537
    117 H                     0.218693
    118 C                    -0.247021
    119 H                     0.231850
    120 C                    -0.191376
    121 C                    -0.762228
    122 H                     0.241952
    123 H                     0.247866
    124 H                     0.248596
    125 C                    -0.549360
    126 H                     0.237390
    127 H                     0.252289
    128 C                    -0.639834
    129 H                     0.231592
    130 H                     0.223350
    131 H                     0.220819
    132 S                     0.145730
  ----------------------------------------
  Sum of atomic charges =    -0.000000

                    Cartesian Multipole Moments
 -----------------------------------------------------------------
    Charge (ESU x 10^10)
                -0.0000
    Dipole Moment (Debye)
         X      -0.5571      Y       0.3483      Z      -0.2823
       Tot       0.7150
    Quadrupole Moments (Debye-Ang)
        XX    -435.4004     XY     -22.1277     YY    -474.0021
        XZ      48.6854     YZ     -13.0247     ZZ    -469.7740

 Total job time:  20434.35s(wall), 63179.85s(cpu)
        *  Thank you very much for using Q-Chem.  Have a nice day.  *
