 Q-Chem 5.1, Q-Chem, Inc., Pleasanton, CA (2018)
 Q-Chem 5.1.1 for Intel X86 EM64T Linux

User input:
--------------------------------------------------------------
$rem
threads 4
jobtype	opt
method PBEh-3c
basis def2-mSVP
mem_static	512
mem_total	6096
sym_ignore	true
scf_convergence 9
$end

$molecule
read gsopt.mol
$end

--------------------------------------------------------------

   17   -3799.4274286755      9.37e-10  Convergence criterion met
 Total energy in the final basis set =    -3799.4274286755
   14   -3799.4270157100      6.04e-10  Convergence criterion met
 Total energy in the final basis set =    -3799.4270157100
   14   -3799.4259702710      6.10e-10  Convergence criterion met
 Total energy in the final basis set =    -3799.4259702710
   14   -3799.4243187183      5.28e-10  Convergence criterion met
 Total energy in the final basis set =    -3799.4243187183
   14   -3799.4243666066      5.75e-10  Convergence criterion met
 Total energy in the final basis set =    -3799.4243666066
   13   -3799.4247951688      7.03e-10  Convergence criterion met
 Total energy in the final basis set =    -3799.4247951688
   13   -3799.4245425038      5.28e-10  Convergence criterion met
 Total energy in the final basis set =    -3799.4245425038
   13   -3799.4239145225      6.35e-10  Convergence criterion met
   13   -3799.4242208271      5.04e-10  Convergence criterion met
 Total energy in the final basis set =    -3799.4242208271
   12   -3799.4243493402      7.73e-10  Convergence criterion met
 Total energy in the final basis set =    -3799.4243493402
   12   -3799.4242766608      5.04e-10  Convergence criterion met
 Total energy in the final basis set =    -3799.4242766608
   11   -3799.4243057834      7.77e-10  Convergence criterion met
 Total energy in the final basis set =    -3799.4243057834
   11   -3799.4243664580      5.46e-10  Convergence criterion met
 Total energy in the final basis set =    -3799.4243664580
   10   -3799.4243770743      4.67e-10  Convergence criterion met
 Total energy in the final basis set =    -3799.4243770743

             Standard Nuclear Orientation (Angstroms)
    I     Atom           X                Y                Z
 ----------------------------------------------------------------
    1      S      -0.6089162467     0.4296996165    -0.4475996426
    2      C      -0.2694197720     0.6422385836     1.2654703738
    3      C       1.0407980100     0.8151333650     1.6813116635
    4      H       1.8170969611     0.9364747056     0.9365131176
    5      C       1.3571626481     0.8036619475     3.0306283365
    6      H       2.3839633211     0.9191886902     3.3491115173
    7      C       0.3423398706     0.6361204859     3.9563281647
    8      H       0.5677488644     0.6168561673     5.0143809204
    9      C      -0.9767076582     0.5078549113     3.5484314802
   10      H      -1.7476524991     0.3899267549     4.2961111173
   11      C      -1.3066475674     0.5151508384     2.1940014003
   12      N      -2.6313574568     0.3915449875     1.7482586808
   13      C      -3.0722665307     1.0118585372     0.5717847068
   14      C      -4.3823318777     1.4675423862     0.4311900340
   15      H      -5.0888347384     1.3435652621     1.2393294472
   16      C      -4.8033509639     2.0623053382    -0.7484644297
   17      H      -5.8303858406     2.3923383965    -0.8330788718
   18      C      -3.9240628661     2.2447858585    -1.8013556967
   19      H      -4.2487592802     2.7175021885    -2.7181858964
   20      C      -2.6157958717     1.8060014267    -1.6690136461
   21      H      -1.9115021454     1.9325634826    -2.4814259941
   22      C      -2.2010217868     1.1717892738    -0.5088248514
   23      C      -3.6128629332    -0.0771933448     2.6653110245
   24      C      -4.0044245740    -1.4004738017     2.6021312661
   25      H      -3.5721309620    -2.0409947836     1.8416729586
   26      C      -4.1695300517     0.7639024888     3.6202973293
   27      H      -3.8696186040     1.8055409402     3.6497326346
   28      C      -5.0815283221     0.2726286536     4.5429516576
   29      C      -4.9228925692    -1.9129517175     3.5143453571
   30      C      -5.4482540336    -1.0814075653     4.5069016644
   31      C      -5.6656810151     1.1790251067     5.5893453207
   32      H      -5.2205415397     2.1726977895     5.5564772108
   33      H      -6.7432704030     1.2947492397     5.4573354242
   34      H      -5.5081290170     0.7833147339     6.5954851188
   35      C      -5.3459899420    -3.3548460325     3.3886576905
   36      H      -4.4877784684    -3.9613526139     3.0876178826
   37      H      -5.6632462416    -3.7501168790     4.3576003576
   38      C      -6.4732357200    -3.5457572589     2.3758295959
   39      H      -7.3760469718    -3.0196720781     2.6855852600
   40      H      -6.1884595167    -3.1704110250     1.3924183452
   41      H      -6.7268600130    -4.6009070341     2.2703875043
   42      B      -6.3756278445    -1.6408834443     5.6447933570
   43      C      -7.9173711484    -1.5172309734     5.5636752844
   44      C      -8.5310847270    -1.0730455288     4.3884861755
   45      H      -7.9199850742    -0.7680451349     3.5457638631
   46      C      -9.9110454048    -1.0551421940     4.2943191645
   47      C     -10.6967091218    -1.4387650647     5.4037243679
   48      C     -10.0998061570    -1.8596405183     6.5739808036
   49      H     -10.7156982609    -2.1674987069     7.4104385763
   50      C      -8.7079252493    -1.9210715264     6.6648618767
   51      C     -12.1058500965    -1.3546077195     5.0241791856
   52      C     -13.3010212403    -1.6046405747     5.6477030005
   53      H     -13.3557357747    -1.9220013062     6.6823389705
   54      C     -12.1217749564    -0.9404207199     3.6808816390
   55      C     -13.2805271910    -0.7820210506     2.9260791758
   56      C     -10.8191813357    -0.7401106892     3.1868125684
   57      C     -10.6737759439    -0.3656432432     1.8760475283
   58      H      -9.7000487273    -0.2059070128     1.4299473651
   59      C     -14.4966876466    -1.4400574717     4.9087839533
   60      H     -15.4395328730    -1.6354946742     5.4029750360
   61      C     -14.5013409845    -1.0467986964     3.5909644427
   62      H     -15.4407431138    -0.9416524366     3.0618377556
   63      C     -13.1013095824    -0.3913104206     1.5777555926
   64      H     -13.9611119544    -0.2540342211     0.9332915720
   65      C     -11.8339537582    -0.1939633941     1.0831136779
   66      H     -11.7131503175     0.0980252860     0.0480914352
   67      B      -8.0403697528    -2.5070212798     7.9445833347
   68      C      -6.5038069406    -2.7051798716     7.9939681000
   69      C      -5.9046079425    -3.3474306992     9.0814840447
   70      H      -6.5111311696    -3.6291913307     9.9363202349
   71      C      -4.5606114213    -3.6752594769     9.0372884115
   72      C      -3.7890167580    -3.3342443571     7.9058398665
   73      C      -4.3563949906    -2.6355444560     6.8567067621
   74      H      -3.7550563024    -2.3613824120     5.9973631696
   75      C      -5.7182683692    -2.3295643463     6.8772525038
   76      C      -3.7203546765    -4.4623013209     9.9397614723
   77      C      -3.9149586866    -5.1095516574    11.1304278890
   78      H      -4.8573525503    -5.0604549756    11.6617073783
   79      C      -2.4728518662    -4.5904395676     9.3007658202
   80      C      -1.4203395453    -5.3579491388     9.7834820506
   81      C      -2.4603841809    -3.9199396049     8.0640770936
   82      C      -1.3440210647    -4.0100727147     7.2766873187
   83      H      -1.2868403434    -3.5316895100     6.3065751997
   84      C      -2.8527378460    -5.8780715857    11.6615823054
   85      H      -3.0069354827    -6.3909740962    12.6017518903
   86      C      -1.6436659185    -6.0101728048    11.0196084788
   87      H      -0.8666502914    -6.6247335926    11.4569280124
   88      C      -0.2731256103    -5.4277282875     8.9570369911
   89      H       0.5842137456    -6.0114017053     9.2685092333
   90      C      -0.2494964433    -4.7716249991     7.7483078678
   91      H       0.6324439410    -4.8479728472     7.1261750654
   92      C      -9.0202595234    -3.0071055500     9.0664354697
   93      C      -9.6543932120    -2.1078847239     9.9304160383
   94      C     -10.7154396290    -2.5372505034    10.7219969435
   95      H     -11.2418323674    -1.8386806020    11.3615639233
   96      C     -11.1492470199    -3.8477452090    10.6567150724
   97      C     -10.4876635192    -4.7561725196     9.8427278002
   98      H     -10.8417064572    -5.7804017428     9.7961877985
   99      C      -9.4319214928    -4.3488598968     9.0395029295
  100      N     -12.3263144054    -4.2297378456    11.3617750925
  101      C     -12.1791891596    -4.9202302964    12.5749203849
  102      C     -10.9482696503    -5.4264624829    12.9871396732
  103      H     -10.0685262821    -5.2747217788    12.3786700021
  104      C     -10.8319395970    -6.1168561365    14.1838020711
  105      H      -9.8608975806    -6.4881026851    14.4833420710
  106      C     -11.9406900883    -6.3439883170    14.9798438293
  107      H     -11.8539452610    -6.8945866343    15.9064226290
  108      C     -13.1711996581    -5.8500237598    14.5763144856
  109      H     -14.0526039300    -6.0128047464    15.1835130861
  110      C     -13.2867744204    -5.1221589993    13.4033844840
  111      C     -13.5151966761    -4.3130541462    10.6170560944
  112      C     -13.5276565395    -4.2498427161     9.2221953585
  113      H     -12.6071603390    -4.1265571607     8.6709048657
  114      C     -14.7172149981    -4.3360397652     8.5136820010
  115      H     -14.6873667480    -4.2803217825     7.4327055781
  116      C     -15.9216828303    -4.5139488276     9.1703258945
  117      H     -16.8482275102    -4.5974585892     8.6190417769
  118      C     -15.9239387835    -4.5834676273    10.5542932923
  119      H     -16.8526179343    -4.7196575973    11.0937988452
  120      C     -14.7436398052    -4.4564784953    11.2694449913
  121      C      -8.8014713721    -5.3268329808     8.0867376252
  122      H      -9.2826992359    -6.3027580433     8.1413814480
  123      H      -7.7395642927    -5.4701970640     8.2912856857
  124      H      -8.8822808932    -4.9832968297     7.0523888299
  125      C      -9.2109678540    -0.6713223619     9.9997547780
  126      H     -10.0269165408    -0.0536680296    10.3823228889
  127      H      -8.9992749757    -0.2934626887     8.9945047930
  128      C      -7.9784520293    -0.4884484939    10.8813993917
  129      H      -7.1287882979    -1.0525740457    10.4958323756
  130      H      -7.6844362567     0.5603456126    10.9296881028
  131      H      -8.1709052796    -0.8308126682    11.8984291127
  132      S     -14.8130885545    -4.3369639267    13.0207350968
 ----------------------------------------------------------------

    9   -3799.4243793918      9.40e-10  Convergence criterion met
 Total energy in the final basis set =    -3799.4243793918
 Final energy is   -3799.42437939183
 **  OPTIMIZATION CONVERGED  **

                    Orbital Energies (a.u.)
 --------------------------------------------------------------

 Alpha MOs
 -- Occupied --
-89.593 -89.592 -14.682 -14.680 -10.502 -10.500 -10.500 -10.499
-10.489 -10.488 -10.480 -10.478 -10.478 -10.478 -10.471 -10.471
-10.470 -10.470 -10.470 -10.470 -10.469 -10.469 -10.469 -10.469
-10.468 -10.467 -10.467 -10.467 -10.467 -10.467 -10.466 -10.465
-10.465 -10.465 -10.464 -10.464 -10.464 -10.464 -10.463 -10.462
-10.461 -10.461 -10.460 -10.459 -10.453 -10.452 -10.452 -10.452
-10.451 -10.451 -10.450 -10.450 -10.449 -10.448 -10.448 -10.448
-10.448 -10.448 -10.447 -10.446 -10.446 -10.446 -10.445 -10.444
-10.443 -10.443 -10.443 -10.443 -10.442 -10.442 -10.442 -10.441
-10.437 -10.436 -10.436 -10.436 -10.428 -10.427  -8.232  -8.232
 -6.958  -6.958  -6.124  -6.123  -6.120  -6.119  -6.115  -6.114
 -1.090  -1.089  -1.022  -1.021  -0.977  -0.976  -0.969  -0.967
 -0.966  -0.966  -0.954  -0.953  -0.939  -0.938  -0.916  -0.907
 -0.901  -0.899  -0.893  -0.893  -0.869  -0.863  -0.861  -0.858
 -0.857  -0.856  -0.853  -0.852  -0.844  -0.843  -0.830  -0.824
 -0.823  -0.821  -0.818  -0.812  -0.811  -0.810  -0.777  -0.777
 -0.766  -0.765  -0.742  -0.737  -0.733  -0.727  -0.722  -0.721
 -0.716  -0.715  -0.710  -0.709  -0.695  -0.686  -0.684  -0.681
 -0.680  -0.672  -0.661  -0.655  -0.653  -0.652  -0.650  -0.649
 -0.634  -0.633  -0.617  -0.616  -0.602  -0.602  -0.598  -0.595
 -0.591  -0.590  -0.590  -0.582  -0.581  -0.564  -0.563  -0.560
 -0.555  -0.550  -0.546  -0.544  -0.539  -0.537  -0.534  -0.533
 -0.528  -0.526  -0.524  -0.522  -0.518  -0.516  -0.509  -0.508
 -0.505  -0.501  -0.501  -0.500  -0.499  -0.498  -0.497  -0.497
 -0.495  -0.491  -0.490  -0.489  -0.486  -0.485  -0.484  -0.483
 -0.482  -0.480  -0.478  -0.477  -0.476  -0.474  -0.474  -0.470
 -0.465  -0.461  -0.456  -0.452  -0.449  -0.447  -0.447  -0.445
 -0.443  -0.440  -0.436  -0.431  -0.431  -0.430  -0.429  -0.429
 -0.427  -0.427  -0.425  -0.418  -0.417  -0.416  -0.406  -0.405
 -0.404  -0.402  -0.401  -0.400  -0.400  -0.399  -0.397  -0.396
 -0.393  -0.391  -0.389  -0.388  -0.387  -0.380  -0.378  -0.375
 -0.370  -0.368  -0.365  -0.359  -0.355  -0.349  -0.345  -0.344
 -0.326  -0.320  -0.304  -0.303  -0.301  -0.299  -0.298  -0.297
 -0.289  -0.286  -0.285  -0.284  -0.283  -0.267  -0.266  -0.265
 -0.263  -0.261  -0.223  -0.221

          Ground-State Mulliken Net Atomic Charges

     Atom                 Charge (a.u.)
  ----------------------------------------
      1 S                     0.143873
      2 C                    -0.192273
      3 C                    -0.248138
      4 H                     0.231635
      5 C                    -0.232189
      6 H                     0.218864
      7 C                    -0.224565
      8 H                     0.221100
      9 C                    -0.299412
     10 H                     0.256428
     11 C                     0.424317
     12 N                    -0.717754
     13 C                     0.423643
     14 C                    -0.295017
     15 H                     0.252157
     16 C                    -0.223406
     17 H                     0.217882
     18 C                    -0.231316
     19 H                     0.218682
     20 C                    -0.249662
     21 H                     0.231225
     22 C                    -0.186929
     23 C                     0.228338
     24 C                    -0.299085
     25 H                     0.225727
     26 C                    -0.334831
     27 H                     0.238635
     28 C                     0.039783
     29 C                     0.059309
     30 C                    -0.203134
     31 C                    -0.764354
     32 H                     0.242377
     33 H                     0.249208
     34 H                     0.249903
     35 C                    -0.545513
     36 H                     0.234746
     37 H                     0.252081
     38 C                    -0.640708
     39 H                     0.232950
     40 H                     0.221243
     41 H                     0.223487
     42 B                     0.682617
     43 C                    -0.151243
     44 C                    -0.400821
     45 H                     0.230061
     46 C                     0.101878
     47 C                     0.094077
     48 C                    -0.373809
     49 H                     0.234573
     50 C                    -0.148918
     51 C                     0.202920
     52 C                    -0.392598
     53 H                     0.233487
     54 C                    -0.061605
     55 C                     0.249746
     56 C                     0.197040
     57 C                    -0.384420
     58 H                     0.218714
     59 C                    -0.208883
     60 H                     0.230843
     61 C                    -0.332072
     62 H                     0.222448
     63 C                    -0.333316
     64 H                     0.222741
     65 C                    -0.203508
     66 H                     0.228702
     67 B                     0.670287
     68 C                    -0.145849
     69 C                    -0.400762
     70 H                     0.229226
     71 C                     0.095864
     72 C                     0.099773
     73 C                    -0.379709
     74 H                     0.231843
     75 C                    -0.159222
     76 C                     0.192172
     77 C                    -0.379249
     78 H                     0.218249
     79 C                    -0.060218
     80 C                     0.250533
     81 C                     0.191978
     82 C                    -0.378340
     83 H                     0.224860
     84 C                    -0.204130
     85 H                     0.228535
     86 C                    -0.333401
     87 H                     0.222743
     88 C                    -0.332200
     89 H                     0.222650
     90 C                    -0.205975
     91 H                     0.230638
     92 C                    -0.200360
     93 C                     0.072160
     94 C                    -0.306542
     95 H                     0.225815
     96 C                     0.210304
     97 C                    -0.321176
     98 H                     0.239754
     99 C                     0.034985
    100 N                    -0.705132
    101 C                     0.423948
    102 C                    -0.297234
    103 H                     0.254463
    104 C                    -0.222910
    105 H                     0.218623
    106 C                    -0.231594
    107 H                     0.219082
    108 C                    -0.246754
    109 H                     0.231800
    110 C                    -0.192933
    111 C                     0.420490
    112 C                    -0.301169
    113 H                     0.257618
    114 C                    -0.231210
    115 H                     0.223392
    116 C                    -0.231465
    117 H                     0.218553
    118 C                    -0.245839
    119 H                     0.232328
    120 C                    -0.191652
    121 C                    -0.760385
    122 H                     0.241763
    123 H                     0.249389
    124 H                     0.250312
    125 C                    -0.545959
    126 H                     0.235701
    127 H                     0.251438
    128 C                    -0.645333
    129 H                     0.236566
    130 H                     0.222464
    131 H                     0.222173
    132 S                     0.146266
  ----------------------------------------
  Sum of atomic charges =    -0.000000

                    Cartesian Multipole Moments
 -----------------------------------------------------------------
    Charge (ESU x 10^10)
                -0.0000
    Dipole Moment (Debye)
         X       0.2300      Y      -1.4092      Z      -0.1529
       Tot       1.4360
    Quadrupole Moments (Debye-Ang)
        XX    -452.2122     XY     -13.7886     YY    -464.8974
        XZ      49.5447     YZ     -21.7394     ZZ    -465.2530

 Total job time:  76203.54s(wall), 300043.94s(cpu)
        *  Thank you very much for using Q-Chem.  Have a nice day.  *
