 Q-Chem 5.0, Q-Chem, Inc., Pleasanton, CA (2017)
 Q-Chem 5.0.1 for Intel X86 EM64T Linux

User input:
--------------------------------------------------------------
$rem
threads 8
jobtype	opt
method PBEh-3c
basis def2-mSVP
mem_static	1024
mem_total	10000
sym_ignore	true
cis_n_roots             2
cis_singlets            true
cis_triplets		false
rpa                     false
cis_state_deriv         1
$end

$molecule
read incoords.mol
$end

--------------------------------------------------------------

   15   -3799.3595441409      7.95E-09 Convergence criterion met
 Total energy in the final basis set = -3799.35954414
   12   -3799.3967920134      8.28E-09 Convergence criterion met
 Total energy in the final basis set = -3799.39679201
   12   -3799.4069358234      9.30E-09 Convergence criterion met
 Total energy in the final basis set = -3799.40693582
   12   -3799.4095554411      6.79E-09 Convergence criterion met
 Total energy in the final basis set = -3799.40955544
   12   -3799.4107751560      6.78E-09 Convergence criterion met
 Total energy in the final basis set = -3799.41077516
   12   -3799.4113312939      6.85E-09 Convergence criterion met
 Total energy in the final basis set = -3799.41133129
   12   -3799.4113571175      7.26E-09 Convergence criterion met
 Total energy in the final basis set = -3799.41135712
   11   -3799.4121360313      9.89E-09 Convergence criterion met
   12   -3799.4165099278      5.82E-09 Convergence criterion met
 Total energy in the final basis set = -3799.41650993
   11   -3799.4170028775      7.91E-09 Convergence criterion met
 Total energy in the final basis set = -3799.41700288
   11   -3799.4169114553      8.94E-09 Convergence criterion met
 Total energy in the final basis set = -3799.41691146
   11   -3799.4168713130      7.25E-09 Convergence criterion met
 Total energy in the final basis set = -3799.41687131
   11   -3799.4169221718      6.12E-09 Convergence criterion met
 Total energy in the final basis set = -3799.41692217
   10   -3799.4169491363      8.60E-09 Convergence criterion met
 Total energy in the final basis set = -3799.41694914

             Standard Nuclear Orientation (Angstroms)
    I     Atom           X                Y                Z
 ----------------------------------------------------------------
    1      C      -4.9006336674    -0.1337132580     4.4365370624
    2      C      -5.5337119887    -0.6219982911     3.2985657539
    3      C      -4.8036676285    -0.8289946464     2.1178057593
    4      C      -3.4347743138    -0.5264496339     2.0961306542
    5      C      -2.8070431105    -0.0419877777     3.2409682769
    6      C      -3.5481060741     0.1402673507     4.3904013138
    7      N      -2.8833599146     0.5722503309     5.5954958595
    8      C      -6.9949397944    -0.9631734882     3.3474939513
    9      C      -2.6220948264    -0.7229585823     0.8439413457
   10      C      -2.4406221025    -0.4118888703     6.4457037149
   11      C      -1.7753407995    -0.1271978934     7.6556887233
   12      C      -3.2696956776     2.8292921233     4.8582384290
   13      C      -2.7506388344     1.9226320079     5.8016674804
   14      C      -3.1359407211     4.1807201794     5.0431300140
   15      C      -2.4845396560     4.6958573785     6.1691001082
   16      C      -1.9749984651     3.8342690297     7.1071924471
   17      C      -2.1025643068     2.4535575779     6.9359471577
   18      C      -2.6481970017    -1.7669766471     6.1191120409
   19      C      -2.2226610045    -2.7620718207     6.9597941136
   20      C      -1.5693776763    -2.4652258929     8.1608314992
   21      C      -1.3475480212    -1.1549480993     8.5005226239
   22      C      -6.9813866767    -1.2888496520    -1.2279480489
   23      C      -6.3557832029    -0.6497859273    -0.1110248095
   24      B      -5.5221654427    -1.4900134034     0.8589481425
   25      C      -5.3843448516    -3.0027279022     0.6601165278
   26      C      -6.0030181458    -3.6280121139    -0.4683709360
   27      B      -6.8209885359    -2.7985139267    -1.4632091488
   28      C      -4.6587577709    -3.8013039479     1.5672121466
   29      C      -4.5371328301    -5.1567000006     1.3775594597
   30      C      -5.1512560933    -5.7723467497     0.2477145749
   31      C      -5.8623721178    -5.0136099556    -0.6501899375
   32      C      -7.7576386367    -0.5216655604    -2.1097374288
   33      C      -7.9266037092     0.8265354810    -1.9073918517
   34      C      -7.3078977072     1.4731498835    -0.7986665282
   35      C      -6.5372003258     0.7372514469     0.0718142643
   36      C      -3.1097423648    -6.2505420495     3.2910112425
   37      C      -2.6132274218    -7.4983320527     3.7285371534
   38      C      -2.8537665803    -8.6716913104     3.0506670740
   39      C      -3.6235202954    -8.6557674683     1.8637362518
   40      C      -4.0974247249    -7.4110152034     1.4560096340
   41      C      -3.8629421893    -6.2023143090     2.1433933368
   42      C      -3.9652234896    -9.7576250268     1.0421288343
   43      C      -4.7246999326    -9.5625225336    -0.0888722417
   44      C      -5.1910947865    -8.2885690934    -0.4815685362
   45      C      -4.8742172120    -7.2020656139     0.2982380216
   46      C      -7.9927596766     5.2330456550    -0.4687467831
   47      C      -7.4223714914     3.9983860623    -0.0843488001
   48      C      -7.6781670596     2.8873382061    -0.8485433181
   49      C      -8.5046761178     3.0414852148    -1.9817141205
   50      C      -9.0838769387     4.2409699343    -2.3837752701
   51      C      -8.7977411258     5.3678779294    -1.5771737645
   52      C      -8.6851132804     1.8164925193    -2.6542766184
   53      C      -9.4778076520     1.7885027766    -3.7753589984
   54      C     -10.0749709240     2.9932442697    -4.2059871560
   55      C      -9.8937580052     4.1869721635    -3.5449334134
   56      C      -9.3527222152    -4.5092110291    -3.8660278380
   57      C      -8.7902416671    -3.9567826620    -2.7167808503
   58      C      -7.4768386081    -3.4770039842    -2.7358100097
   59      C      -6.7382300177    -3.5794342431    -3.9273481909
   60      C      -7.3143655482    -4.1306687006    -5.0626989257
   61      C      -8.6244490140    -4.5903098393    -5.0344719602
   62      N      -9.2395759226    -5.1345560588    -6.2013580364
   63      C      -9.6226726087    -3.9288987328    -1.4614374648
   64      C      -5.3205877308    -3.0844858996    -3.9803389260
   65      C      -9.7597599085    -4.2385768758    -7.1459899375
   66      C      -9.4715816388    -2.8747543625    -7.1068063074
   67      C      -9.7037849420    -7.1245552380    -7.5143664691
   68      C      -8.9464504960    -6.4610412098    -6.5430475526
   69      C      -9.3943225294    -8.4181481510    -7.9018645682
   70      C      -8.3629148217    -9.1102746806    -7.2873145203
   71      C      -7.6366575478    -8.4799074119    -6.2925917232
   72      C      -7.9112672595    -7.1692714784    -5.9327898891
   73      C     -10.5947318915    -4.7008134777    -8.1693354555
   74      C     -11.0718080014    -3.8404014166    -9.1444641485
   75      C     -10.7791496191    -2.4870223650    -9.0933425714
   76      C      -9.9877161709    -2.0124377757    -8.0620699627
   77      H      -5.4562075186     0.0055884486     5.3568636993
   78      H      -1.7436264324     0.1692862377     3.2337949118
   79      H      -7.1577207037    -2.0040778521     3.0643073194
   80      H      -7.5650662201    -0.3587302315     2.6414289757
   81      H      -7.4149876672    -0.8110483807     4.3416048632
   82      H      -2.9369881732    -1.6427865859     0.3486563051
   83      H      -1.5700183329    -0.8601218544     1.1081941348
   84      C      -2.7541334437     0.4464473480    -0.1294163500
   85      H      -3.7751551666     2.4552612116     3.9815974897
   86      H      -3.5433043438     4.8527866394     4.3016867619
   87      H      -2.3840048258     5.7628875899     6.3025643881
   88      H      -1.4714743933     4.2161219127     7.9858695941
   89      H      -3.1495250617    -2.0281532084     5.2008662219
   90      H      -2.3997160268    -3.7913282739     6.6823665914
   91      H      -1.2403304126    -3.2589598945     8.8154459218
   92      H      -0.8398446533    -0.9076473251     9.4238332047
   93      H      -4.1894456072    -3.3404523345     2.4302279043
   94      H      -6.3277152764    -5.4854504968    -1.5103503666
   95      H      -8.2340203594    -1.0081090857    -2.9550800768
   96      H      -6.0614407761     1.2287145316     0.9151886386
   97      H      -2.8870535867    -5.3566188342     3.8604847132
   98      H      -2.0187443248    -7.5325192198     4.6329378025
   99      H      -2.4530102941    -9.6062225386     3.4241312459
  100      H      -3.6300792166   -10.7541962528     1.3026992321
  101      H      -4.9770772345   -10.4167431629    -0.7046652059
  102      H      -5.7862476795    -8.1918507767    -1.3813184600
  103      H      -7.7885892781     6.1068452477     0.1369915265
  104      H      -6.8010103221     3.9479021252     0.8010771058
  105      H      -9.2138622585     6.3354679905    -1.8294758051
  106      H      -9.6554503492     0.8727180196    -4.3261281117
  107      H     -10.7008793599     2.9728020293    -5.0892593695
  108      H     -10.3745950418     5.0850827704    -3.9126149054
  109      H     -10.3749535835    -4.8717327573    -3.8590984510
  110      H      -6.7477317686    -4.1978447654    -5.9856175950
  111      H     -10.6428468285    -3.6211490393    -1.7080987875
  112      H      -9.2371586546    -3.1766403680    -0.7701777770
  113      C      -9.6592766431    -5.2878866554    -0.7667898360
  114      H      -4.8960664375    -3.1934740187    -4.9784089382
  115      H      -4.6847777457    -3.6333991014    -3.2830445223
  116      H      -5.2572072758    -2.0307026818    -3.7022121331
  117      H      -8.8475874251    -2.4769176087    -6.3199741844
  118      H      -9.9866454390    -8.8901994864    -8.6757568888
  119      H      -8.1400186239   -10.1277135404    -7.5784793853
  120      H      -6.8340160022    -9.0030586362    -5.7895732715
  121      H      -7.3199112716    -6.7038356962    -5.1580365186
  122      H     -11.6936666798    -4.2376439754    -9.9369917458
  123      H     -11.1700544572    -1.8171264880    -9.8469819582
  124      H      -9.7513372355    -0.9585416926    -7.9975980476
  125      H     -10.0605831500    -6.0587549592    -1.4264269748
  126      H     -10.2845671131    -5.2547111907     0.1263153845
  127      H      -8.6598674208    -5.5976272658    -0.4617849403
  128      H      -2.1338869726     0.2826574760    -1.0107620267
  129      H      -2.4401950132     1.3850747058     0.3300286228
  130      H      -3.7825036613     0.5635142847    -0.4679343464
  131      S     -11.1577662960    -6.3660247873    -8.1448977350
  132      S      -1.4306889014     1.4726792275     8.1770101796
 ----------------------------------------------------------------

   10   -3799.4169535282      4.92E-09 Convergence criterion met
 Total energy in the final basis set = -3799.41695353

         TDDFT/TDA Excitation Energies
 ---------------------------------------------------

 Excited state   1: excitation energy (eV) =    1.8384
 Total energy for state  1:                 -3799.34939308 au
    Multiplicity: Singlet
    Trans. Mom.:  0.0236 X   0.0165 Y   0.0424 Z
    Strength   :     0.0001183765
    D(276) --> V(  1) amplitude =  0.9986

 Excited state   2: excitation energy (eV) =    2.4992
 Total energy for state  2:                 -3799.32510913 au
    Multiplicity: Singlet
    Trans. Mom.:  0.0039 X   0.0050 Y   0.0048 Z
    Strength   :     0.0000038857
    D(275) --> V(  1) amplitude =  0.9983

 ---------------------------------------------------

 Final energy is   -3799.34939307885
 **  OPTIMIZATION CONVERGED  **

                    Orbital Energies (a.u.)
 --------------------------------------------------------------

 Alpha MOs
 -- Occupied --
-89.592 -89.591 -14.682 -14.682 -10.502 -10.502 -10.501 -10.500
-10.490 -10.489 -10.480 -10.479 -10.478 -10.478 -10.473 -10.473
-10.473 -10.473 -10.473 -10.472 -10.472 -10.472 -10.472 -10.471
-10.470 -10.470 -10.470 -10.470 -10.470 -10.469 -10.469 -10.468
-10.467 -10.467 -10.466 -10.466 -10.465 -10.465 -10.465 -10.464
-10.463 -10.462 -10.462 -10.461 -10.455 -10.455 -10.452 -10.452
-10.450 -10.450 -10.450 -10.449 -10.449 -10.449 -10.448 -10.448
-10.447 -10.446 -10.445 -10.445 -10.445 -10.444 -10.444 -10.444
-10.444 -10.444 -10.443 -10.443 -10.443 -10.442 -10.440 -10.439
-10.438 -10.438 -10.437 -10.436 -10.428 -10.427  -8.232  -8.232
 -6.956  -6.956  -6.124  -6.123  -6.120  -6.120  -6.115  -6.114
 -1.098  -1.090  -1.023  -1.023  -0.978  -0.977  -0.969  -0.967
 -0.967  -0.965  -0.955  -0.953  -0.941  -0.941  -0.917  -0.907
 -0.903  -0.900  -0.893  -0.893  -0.871  -0.864  -0.864  -0.860
 -0.859  -0.857  -0.854  -0.854  -0.843  -0.843  -0.832  -0.824
 -0.822  -0.821  -0.820  -0.812  -0.812  -0.811  -0.778  -0.777
 -0.765  -0.761  -0.744  -0.740  -0.735  -0.728  -0.723  -0.722
 -0.720  -0.717  -0.715  -0.710  -0.697  -0.688  -0.687  -0.680
 -0.677  -0.675  -0.661  -0.655  -0.653  -0.653  -0.648  -0.646
 -0.634  -0.629  -0.622  -0.617  -0.605  -0.603  -0.600  -0.597
 -0.592  -0.591  -0.591  -0.584  -0.584  -0.565  -0.564  -0.561
 -0.555  -0.552  -0.546  -0.545  -0.539  -0.537  -0.536  -0.533
 -0.529  -0.528  -0.525  -0.521  -0.517  -0.516  -0.512  -0.509
 -0.505  -0.502  -0.501  -0.500  -0.499  -0.498  -0.498  -0.497
 -0.497  -0.492  -0.491  -0.491  -0.488  -0.487  -0.484  -0.483
 -0.481  -0.479  -0.479  -0.478  -0.477  -0.475  -0.475  -0.472
 -0.466  -0.463  -0.457  -0.453  -0.450  -0.449  -0.447  -0.445
 -0.441  -0.440  -0.438  -0.434  -0.432  -0.430  -0.430  -0.430
 -0.427  -0.427  -0.423  -0.418  -0.417  -0.417  -0.406  -0.405
 -0.404  -0.403  -0.402  -0.402  -0.401  -0.401  -0.399  -0.398
 -0.393  -0.392  -0.391  -0.389  -0.387  -0.381  -0.380  -0.376
 -0.373  -0.370  -0.366  -0.361  -0.360  -0.357  -0.347  -0.344
 -0.329  -0.323  -0.307  -0.304  -0.303  -0.302  -0.300  -0.297
 -0.290  -0.288  -0.286  -0.285  -0.284  -0.269  -0.266  -0.264
 -0.262  -0.262  -0.222  -0.197

          Ground-State Mulliken Net Atomic Charges

     Atom                 Charge (a.u.)
  ----------------------------------------
      1 C                    -0.281104
      2 C                     0.030223
      3 C                    -0.204481
      4 C                     0.058864
      5 C                    -0.282001
      6 C                     0.145275
      7 N                    -0.715779
      8 C                    -0.759990
      9 C                    -0.548713
     10 C                     0.440385
     11 C                    -0.209187
     12 C                    -0.305500
     13 C                     0.445032
     14 C                    -0.222833
     15 C                    -0.236466
     16 C                    -0.239378
     17 C                    -0.211084
     18 C                    -0.301762
     19 C                    -0.222088
     20 C                    -0.235973
     21 C                    -0.239682
     22 C                    -0.156153
     23 C                    -0.142116
     24 B                     0.666910
     25 C                    -0.147520
     26 C                    -0.145153
     27 B                     0.679806
     28 C                    -0.385213
     29 C                     0.114033
     30 C                     0.096221
     31 C                    -0.397141
     32 C                    -0.381749
     33 C                     0.094783
     34 C                     0.115272
     35 C                    -0.402474
     36 C                    -0.381340
     37 C                    -0.202622
     38 C                    -0.333584
     39 C                     0.252218
     40 C                    -0.067987
     41 C                     0.200142
     42 C                    -0.330356
     43 C                    -0.204518
     44 C                    -0.377163
     45 C                     0.198281
     46 C                    -0.202363
     47 C                    -0.382693
     48 C                     0.199434
     49 C                    -0.066363
     50 C                     0.253253
     51 C                    -0.335165
     52 C                     0.195146
     53 C                    -0.373313
     54 C                    -0.206091
     55 C                    -0.329932
     56 C                    -0.298211
     57 C                     0.060250
     58 C                    -0.216114
     59 C                     0.040316
     60 C                    -0.324399
     61 C                     0.217283
     62 N                    -0.710905
     63 C                    -0.547896
     64 C                    -0.760010
     65 C                     0.423661
     66 C                    -0.296374
     67 C                    -0.192068
     68 C                     0.425395
     69 C                    -0.246363
     70 C                    -0.232541
     71 C                    -0.221550
     72 C                    -0.298876
     73 C                    -0.191119
     74 C                    -0.246273
     75 C                    -0.231967
     76 C                    -0.223244
     77 H                     0.232699
     78 H                     0.230399
     79 H                     0.248342
     80 H                     0.248991
     81 H                     0.242174
     82 H                     0.253172
     83 H                     0.234841
     84 C                    -0.649335
     85 H                     0.255841
     86 H                     0.213440
     87 H                     0.216482
     88 H                     0.228673
     89 H                     0.256453
     90 H                     0.209033
     91 H                     0.216058
     92 H                     0.228836
     93 H                     0.228497
     94 H                     0.231397
     95 H                     0.228098
     96 H                     0.229996
     97 H                     0.219078
     98 H                     0.229260
     99 H                     0.224174
    100 H                     0.223996
    101 H                     0.229512
    102 H                     0.219791
    103 H                     0.229374
    104 H                     0.218756
    105 H                     0.224003
    106 H                     0.220904
    107 H                     0.229767
    108 H                     0.223731
    109 H                     0.226091
    110 H                     0.238399
    111 H                     0.236861
    112 H                     0.251650
    113 C                    -0.641668
    114 H                     0.241587
    115 H                     0.246638
    116 H                     0.248237
    117 H                     0.252852
    118 H                     0.231635
    119 H                     0.218677
    120 H                     0.216506
    121 H                     0.252886
    122 H                     0.231901
    123 H                     0.218639
    124 H                     0.216395
    125 H                     0.220564
    126 H                     0.223395
    127 H                     0.233757
    128 H                     0.222873
    129 H                     0.219676
    130 H                     0.244112
    131 S                     0.144383
    132 S                     0.180281
  ----------------------------------------
  Sum of atomic charges =    -0.000000

                    Cartesian Multipole Moments
 -----------------------------------------------------------------
    Charge (ESU x 10^10)
                -0.0000
    Dipole Moment (Debye)
         X      -0.1051      Y      -0.0304      Z      -0.9816
       Tot       0.9877
    Quadrupole Moments (Debye-Ang)
        XX    -481.4954     XY     -34.3620     YY    -412.2762
        XZ       1.5477     YZ     -29.0404     ZZ    -495.8059

 Total job time:  87887.57s(wall), 514986.01s(cpu)
        *  Thank you very much for using Q-Chem.  Have a nice day.  *
