 Q-Chem 5.0, Q-Chem, Inc., Pleasanton, CA (2017)
 Q-Chem 5.0.1 for Intel X86 EM64T Linux

User input:
--------------------------------------------------------------
$rem
threads 8
jobtype	sp
method PBEh-3c
basis def2-mSVP
mem_static	1024
mem_total	10000
sym_ignore	true
cis_n_roots             6
cis_singlets            true
cis_triplets		true
rpa                     false
calc_soc 		true
cis_moments             true
cis_relaxed_density	true
$end

$molecule
read s1opt.mol
$end

--------------------------------------------------------------

             Standard Nuclear Orientation (Angstroms)
    I     Atom           X                Y                Z
 ----------------------------------------------------------------
    1      S       0.0000000000     0.0000000000     0.0000000000
    2      C       0.0000000000     0.0000000000     1.7569860000
    3      C       1.2095447200     0.0000000000     2.4324910128
    4      H       2.1258218407     0.1216959230     1.8683861592
    5      C       1.2500430424    -0.1845524741     3.8053762857
    6      H       2.1985178606    -0.2058000908     4.3245933001
    7      C       0.0599816053    -0.3508636331     4.4912186067
    8      H       0.0657864152    -0.5081545115     5.5618142122
    9      C      -1.1564476601    -0.3051299086     3.8272586155
   10      H      -2.0674935555    -0.4303589615     4.3937284093
   11      C      -1.2117424800    -0.1201256039     2.4458371728
   12      N      -2.4280483220    -0.0643724841     1.7532120746
   13      C      -2.5709841158     0.7155392832     0.5969221753
   14      C      -3.7806091071     1.3224466226     0.2606709970
   15      H      -4.6486816851     1.1807740352     0.8876691336
   16      C      -3.8909580428     2.1006924617    -0.8815501329
   17      H      -4.8463289730     2.5503428198    -1.1177899880
   18      C      -2.7974619735     2.3168894253    -1.7017003058
   19      H      -2.8792538336     2.9356619147    -2.5848589135
   20      C      -1.5893463027     1.7206174174    -1.3779493780
   21      H      -0.7192405370     1.8680287357    -2.0054806222
   22      C      -1.4828621498     0.9072706460    -0.2617435252
   23      C      -3.6135021735    -0.4528025450     2.4460543276
   24      C      -4.1389418841    -1.7091657057     2.2276855039
   25      H      -3.6313436208    -2.3776547669     1.5407408530
   26      C      -4.2498487988     0.4171414138     3.3216372240
   27      H      -3.8304605548     1.4038979654     3.4883437413
   28      C      -5.4166233210     0.0352747412     3.9678780646
   29      C      -5.3111253915    -2.1084997118     2.8670978766
   30      C      -5.9696288374    -1.2367589077     3.7400352618
   31      C      -6.0915120406     0.9931612616     4.9083406398
   32      H      -5.5690299951     1.9490050220     4.9485244911
   33      H      -6.1311234784     0.5890848883     5.9217180248
   34      H      -7.1223665416     1.1869507318     4.6056603415
   35      C      -5.8162498542    -3.5055510919     2.6166937189
   36      H      -6.8789426320    -3.5712035413     2.8590290948
   37      H      -5.7322480999    -3.7372940017     1.5510739501
   38      C      -5.0447041772    -4.5478004610     3.4223970533
   39      H      -5.1531572704    -4.3728022744     4.4926305147
   40      H      -5.4082984664    -5.5542247320     3.2111293684
   41      H      -3.9798055720    -4.5215306393     3.1863753715
   42      B      -7.3297439339    -1.6378959345     4.4465592620
   43      C      -7.3294642407    -2.2774881982     5.8385965996
   44      C      -6.1159907216    -2.5577871306     6.4879315688
   45      H      -5.1811587743    -2.3028952138     5.9978579110
   46      C      -6.1018007324    -3.1528289402     7.7262066186
   47      C      -7.3269032639    -3.4876058198     8.3740998714
   48      C      -8.5233621727    -3.2142236250     7.7563557762
   49      H      -9.4513969592    -3.4731772835     8.2554827811
   50      C      -8.5627819645    -2.6053982263     6.4856077210
   51      C      -5.0009194599    -3.5576333619     8.5908415622
   52      C      -3.6293905576    -3.5068607150     8.5178298648
   53      H      -3.1181414099    -3.0861404762     7.6606654125
   54      C      -5.5910481423    -4.1234367087     9.7393697142
   55      C      -4.8700333478    -4.6361192953    10.8152547989
   56      C      -6.9986703642    -4.1020228814     9.6582727193
   57      C      -7.7117820219    -4.6149119612    10.7142453207
   58      H      -8.7948092400    -4.6206787807    10.7169705367
   59      C      -2.8748089021    -4.0222449075     9.5947136264
   60      H      -1.7944225680    -3.9819291210     9.5336566712
   61      C      -3.4588939267    -4.5714105947    10.7133268380
   62      H      -2.8382018994    -4.9539719543    11.5144262582
   63      C      -7.0084347958    -5.1399557364    11.8208471551
   64      H      -7.5737669826    -5.5423082792    12.6521296541
   65      C      -5.6337938354    -5.1592863282    11.8850884099
   66      H      -5.1368246426    -5.5728930001    12.7542153885
   67      B      -9.8909992034    -2.2914295643     5.7898371542
   68      C      -9.9098880713    -1.6754379657     4.3891425916
   69      C     -11.1166736417    -1.4167026666     3.7058123679
   70      H     -12.0611679772    -1.6461498278     4.1900107342
   71      C     -11.1139342250    -0.8821635128     2.4379330147
   72      C      -9.8732315524    -0.5771917090     1.8071957465
   73      C      -8.6858892686    -0.8134610154     2.4564528016
   74      H      -7.7443995662    -0.5810224148     1.9688661454
   75      C      -8.6697475391    -1.3650310046     3.7464924939
   76      C     -10.1478311084    -0.0413430569     0.4840745292
   77      C      -9.3772529925     0.4031666813    -0.5621545675
   78      H      -8.2951507905     0.4101614846    -0.5114516446
   79      C     -11.5500798141    -0.0308517717     0.3459002600
   80      C     -12.2148223350     0.4063078252    -0.7955461318
   81      C     -12.1830512542    -0.5320806495     1.5030828870
   82      C     -13.5541794363    -0.5938915644     1.5093475019
   83      H     -14.1016756499    -0.9733300788     2.3630995593
   84      C     -10.0277668443     0.8549518406    -1.7309870574
   85      H      -9.4217003090     1.2050318563    -2.5571087587
   86      C     -11.3982829936     0.8636032324    -1.8591518247
   87      H     -11.8515717134     1.2179192901    -2.7767501956
   88      C     -14.2590767263    -0.1532575092     0.3663475039
   89      H     -15.3405002242    -0.2039663062     0.3754501750
   90      C     -13.6274331469     0.3331508678    -0.7558015796
   91      H     -14.2117170698     0.6566838339    -1.6084336857
   92      C     -11.2424094020    -2.6554478367     6.5508156329
   93      C     -11.7641664360    -1.8159459525     7.5452397764
   94      C     -12.8912133260    -2.2020554417     8.2664099196
   95      H     -13.2818913037    -1.5658590736     9.0526470019
   96      C     -13.4879096451    -3.4142648027     7.9869629400
   97      C     -13.0059301060    -4.2539732221     7.0025284388
   98      H     -13.4859977201    -5.2072032202     6.8129060119
   99      C     -11.8781887296    -3.8773387129     6.2810478927
  100      N     -14.6105020441    -3.8464541339     8.7830453717
  101      C     -15.8638851462    -3.4548586327     8.3838766053
  102      C     -14.3293829417    -4.6251294570     9.8794200418
  103      C     -16.0165278515    -2.6714773784     7.2243394902
  104      H     -15.1458598800    -2.3898535968     6.6529268164
  105      C     -17.2599083992    -2.2624853397     6.8179378436
  106      H     -17.3464542918    -1.6609781293     5.9245980647
  107      C     -18.4074237424    -2.6106727296     7.5386816801
  108      H     -19.3815786320    -2.2807017488     7.2091140179
  109      C     -18.2873751525    -3.3788004519     8.6689699335
  110      H     -19.1651837948    -3.6602200168     9.2361347488
  111      C     -17.0281205495    -3.8055836082     9.0980329149
  112      C     -12.9939439531    -4.9642111521    10.1754606799
  113      H     -12.1959471914    -4.6079218834     9.5438143582
  114      C     -12.6952391960    -5.7483999737    11.2589117005
  115      H     -11.6616136236    -5.9933281626    11.4571836125
  116      C     -13.7014094803    -6.2316669634    12.1023942707
  117      H     -13.4526993423    -6.8502350544    12.9522900875
  118      C     -15.0094913559    -5.9112836634    11.8421966270
  119      H     -15.7999469478    -6.2731202488    12.4869270506
  120      C     -15.3326188454    -5.1134019522    10.7412908066
  121      C     -11.3195746683    -4.7999480162     5.2366714461
  122      H     -11.8766517348    -5.7349926018     5.1801455291
  123      H     -11.3349471004    -4.3349629287     4.2505290935
  124      H     -10.2762459363    -5.0371200044     5.4497176600
  125      C     -11.1169238827    -0.4918382106     7.8532298964
  126      H     -10.0320504729    -0.6009250537     7.8120091918
  127      H     -11.3579793521    -0.1961764494     8.8779174762
  128      C     -11.5514810082     0.6105775942     6.8897934003
  129      H     -11.2599925669     0.3776453104     5.8667480391
  130      H     -11.0847718379     1.5586390019     7.1574963441
  131      H     -12.6330654557     0.7536374208     6.9092458210
  132      S     -17.0005297816    -4.7662121391    10.5228891615
 ----------------------------------------------------------------

   16   -3799.4165179269      5.21E-09 Convergence criterion met
 Total energy in the final basis set = -3799.41651793

         TDDFT/TDA Excitation Energies
 ---------------------------------------------------

 Excited state   1: excitation energy (eV) =    1.8383
 Total energy for state  1:                 -3799.34896132 au
    Multiplicity: Triplet
    Trans. Mom.:  0.0000 X   0.0000 Y   0.0000 Z
    Strength   :     0.0000000000
    D(276) --> V(  1) amplitude =  0.9985

 Excited state   2: excitation energy (eV) =    1.8386
 Total energy for state  2:                 -3799.34895102 au
    Multiplicity: Singlet
    Trans. Mom.:  0.0424 X   0.0145 Y  -0.0281 Z
    Strength   :     0.0001258717
    D(276) --> V(  1) amplitude =  0.9985

 Excited state   3: excitation energy (eV) =    2.1647
 Total energy for state  3:                 -3799.33696763 au
    Multiplicity: Triplet
    Trans. Mom.:  0.0000 X   0.0000 Y   0.0000 Z
    Strength   :     0.0000000000
    D(272) --> V(  1) amplitude = -0.7830
    D(274) --> V(  1) amplitude =  0.4632

 Excited state   4: excitation energy (eV) =    2.3983
 Total energy for state  4:                 -3799.32838160 au
    Multiplicity: Triplet
    Trans. Mom.:  0.0000 X   0.0000 Y   0.0000 Z
    Strength   :     0.0000000000
    D(270) --> V(  2) amplitude = -0.4651
    D(272) --> V(  1) amplitude =  0.4404
    D(273) --> V(  1) amplitude = -0.2312
    D(274) --> V(  1) amplitude =  0.6453

 Excited state   5: excitation energy (eV) =    2.4632
 Total energy for state  5:                 -3799.32599756 au
    Multiplicity: Triplet
    Trans. Mom.:  0.0000 X   0.0000 Y   0.0000 Z
    Strength   :     0.0000000000
    D(270) --> V(  1) amplitude =  0.7462
    D(270) --> V(  4) amplitude =  0.2359
    D(272) --> V(  2) amplitude = -0.2286
    D(274) --> V(  2) amplitude = -0.4633

 Excited state   6: excitation energy (eV) =    2.4990
 Total energy for state  6:                 -3799.32468188 au
    Multiplicity: Triplet
    Trans. Mom.:  0.0000 X   0.0000 Y   0.0000 Z
    Strength   :     0.0000000000
    D(275) --> V(  1) amplitude =  0.9969

 Excited state   7: excitation energy (eV) =    2.4992
 Total energy for state  7:                 -3799.32467403 au
    Multiplicity: Singlet
    Trans. Mom.: -0.0071 X   0.0009 Y   0.0014 Z
    Strength   :     0.0000032204
    D(275) --> V(  1) amplitude =  0.9982

 Excited state   8: excitation energy (eV) =    2.6188
 Total energy for state  8:                 -3799.32027701 au
    Multiplicity: Triplet
    Trans. Mom.:  0.0000 X   0.0000 Y   0.0000 Z
    Strength   :     0.0000000000
    D(276) --> V(  6) amplitude =  0.8869
    D(276) --> V( 12) amplitude = -0.2636

 Excited state   9: excitation energy (eV) =    2.8270
 Total energy for state  9:                 -3799.31262710 au
    Multiplicity: Singlet
    Trans. Mom.:  0.0961 X  -0.0577 Y   0.1453 Z
    Strength   :     0.0023329598
    D(272) --> V(  1) amplitude = -0.8369
    D(274) --> V(  1) amplitude =  0.4602

 Excited state  10: excitation energy (eV) =    2.9289
 Total energy for state 10:                 -3799.30888423 au
    Multiplicity: Singlet
    Trans. Mom.: -0.0063 X  -0.0024 Y   0.0057 Z
    Strength   :     0.0000055247
    D(276) --> V(  2) amplitude =  0.9983

 Excited state  11: excitation energy (eV) =    3.1581
 Total energy for state 11:                 -3799.30046168 au
    Multiplicity: Singlet
    Trans. Mom.:  1.6926 X  -1.1777 Y   2.7416 Z
    Strength   :     0.9105226715
    D(272) --> V(  1) amplitude =  0.4786
    D(273) --> V(  1) amplitude = -0.2760
    D(274) --> V(  1) amplitude =  0.7766

 Excited state  12: excitation energy (eV) =    3.3396
 Total energy for state 12:                 -3799.29378836 au
    Multiplicity: Singlet
    Trans. Mom.: -0.0382 X   0.0441 Y  -0.0263 Z
    Strength   :     0.0003352091
    D(276) --> V(  6) amplitude =  0.9358

 ---------------------------------------------------

                    Orbital Energies (a.u.)
 --------------------------------------------------------------

 Alpha MOs
 -- Occupied --
-89.592 -89.591 -14.682 -14.682 -10.502 -10.502 -10.501 -10.500
-10.490 -10.489 -10.480 -10.479 -10.478 -10.478 -10.473 -10.473
-10.473 -10.473 -10.473 -10.472 -10.472 -10.472 -10.472 -10.471
-10.470 -10.470 -10.470 -10.470 -10.470 -10.469 -10.469 -10.468
-10.467 -10.466 -10.466 -10.466 -10.465 -10.465 -10.465 -10.464
-10.463 -10.462 -10.462 -10.461 -10.455 -10.455 -10.452 -10.452
-10.450 -10.450 -10.450 -10.449 -10.449 -10.449 -10.448 -10.448
-10.447 -10.446 -10.445 -10.445 -10.445 -10.444 -10.444 -10.444
-10.444 -10.444 -10.443 -10.443 -10.443 -10.442 -10.440 -10.439
-10.438 -10.438 -10.437 -10.436 -10.428 -10.427  -8.232  -8.232
 -6.956  -6.956  -6.124  -6.123  -6.120  -6.120  -6.115  -6.114
 -1.098  -1.090  -1.023  -1.023  -0.978  -0.977  -0.969  -0.967
 -0.967  -0.965  -0.955  -0.953  -0.941  -0.941  -0.917  -0.907
 -0.903  -0.900  -0.893  -0.893  -0.871  -0.864  -0.864  -0.860
 -0.859  -0.857  -0.854  -0.854  -0.843  -0.843  -0.832  -0.824
 -0.822  -0.821  -0.820  -0.812  -0.812  -0.811  -0.778  -0.777
 -0.765  -0.761  -0.744  -0.740  -0.735  -0.728  -0.723  -0.722
 -0.720  -0.717  -0.715  -0.710  -0.697  -0.688  -0.687  -0.680
 -0.677  -0.675  -0.661  -0.655  -0.653  -0.653  -0.648  -0.646
 -0.634  -0.629  -0.622  -0.617  -0.605  -0.603  -0.600  -0.597
 -0.592  -0.591  -0.591  -0.584  -0.584  -0.565  -0.564  -0.561
 -0.555  -0.552  -0.546  -0.545  -0.539  -0.537  -0.536  -0.533
 -0.529  -0.528  -0.525  -0.521  -0.517  -0.516  -0.512  -0.509
 -0.505  -0.502  -0.501  -0.500  -0.499  -0.498  -0.498  -0.497
 -0.497  -0.492  -0.491  -0.491  -0.488  -0.487  -0.484  -0.483
 -0.481  -0.479  -0.479  -0.478  -0.477  -0.475  -0.475  -0.472
 -0.466  -0.463  -0.457  -0.453  -0.450  -0.449  -0.447  -0.445
 -0.441  -0.440  -0.438  -0.434  -0.432  -0.430  -0.430  -0.430
 -0.427  -0.427  -0.423  -0.418  -0.417  -0.417  -0.406  -0.405
 -0.404  -0.403  -0.402  -0.402  -0.401  -0.401  -0.399  -0.398
 -0.393  -0.392  -0.391  -0.389  -0.387  -0.381  -0.380  -0.376
 -0.373  -0.370  -0.366  -0.361  -0.360  -0.357  -0.347  -0.344
 -0.329  -0.323  -0.307  -0.304  -0.303  -0.302  -0.300  -0.297
 -0.290  -0.288  -0.286  -0.285  -0.284  -0.269  -0.266  -0.264
 -0.262  -0.262  -0.222  -0.197

          Ground-State Mulliken Net Atomic Charges

     Atom                 Charge (a.u.)
  ----------------------------------------
      1 S                     0.144581
      2 C                    -0.192465
      3 C                    -0.246529
      4 H                     0.231638
      5 C                    -0.232422
      6 H                     0.218663
      7 C                    -0.221605
      8 H                     0.216493
      9 C                    -0.298713
     10 H                     0.252791
     11 C                     0.425632
     12 N                    -0.710938
     13 C                     0.423667
     14 C                    -0.296217
     15 H                     0.252787
     16 C                    -0.223273
     17 H                     0.216417
     18 C                    -0.231937
     19 H                     0.218646
     20 C                    -0.246323
     21 H                     0.231903
     22 C                    -0.191245
     23 C                     0.217966
     24 C                    -0.298429
     25 H                     0.226059
     26 C                    -0.325010
     27 H                     0.238453
     28 C                     0.040801
     29 C                     0.060461
     30 C                    -0.216825
     31 C                    -0.759837
     32 H                     0.241562
     33 H                     0.246607
     34 H                     0.248194
     35 C                    -0.548023
     36 H                     0.251608
     37 H                     0.236870
     38 C                    -0.641690
     39 H                     0.233807
     40 H                     0.223398
     41 H                     0.220537
     42 B                     0.679939
     43 C                    -0.145249
     44 C                    -0.396812
     45 H                     0.231341
     46 C                     0.096195
     47 C                     0.114307
     48 C                    -0.385077
     49 H                     0.228430
     50 C                    -0.147762
     51 C                     0.198170
     52 C                    -0.377108
     53 H                     0.219735
     54 C                    -0.067504
     55 C                     0.252077
     56 C                     0.199891
     57 C                    -0.381374
     58 H                     0.219008
     59 C                    -0.204490
     60 H                     0.229498
     61 C                    -0.330413
     62 H                     0.223995
     63 C                    -0.202538
     64 H                     0.229226
     65 C                    -0.333607
     66 H                     0.224143
     67 B                     0.667387
     68 C                    -0.142169
     69 C                    -0.402402
     70 H                     0.229919
     71 C                     0.115275
     72 C                     0.094971
     73 C                    -0.381856
     74 H                     0.228081
     75 C                    -0.156075
     76 C                     0.195091
     77 C                    -0.373204
     78 H                     0.220895
     79 C                    -0.065986
     80 C                     0.253192
     81 C                     0.199314
     82 C                    -0.382799
     83 H                     0.218697
     84 C                    -0.206097
     85 H                     0.229760
     86 C                    -0.329993
     87 H                     0.223739
     88 C                    -0.202314
     89 H                     0.229327
     90 C                    -0.335128
     91 H                     0.223990
     92 C                    -0.205058
     93 C                     0.059180
     94 C                    -0.282570
     95 H                     0.230422
     96 C                     0.145671
     97 C                    -0.281650
     98 H                     0.232763
     99 C                     0.030590
    100 N                    -0.715768
    101 C                     0.445007
    102 C                     0.440368
    103 C                    -0.305464
    104 H                     0.255851
    105 C                    -0.222848
    106 H                     0.213457
    107 C                    -0.236461
    108 H                     0.216490
    109 C                    -0.239340
    110 H                     0.228639
    111 C                    -0.211091
    112 C                    -0.301575
    113 H                     0.256318
    114 C                    -0.222076
    115 H                     0.209061
    116 C                    -0.235993
    117 H                     0.216080
    118 C                    -0.239711
    119 H                     0.228809
    120 C                    -0.209146
    121 C                    -0.760138
    122 H                     0.242204
    123 H                     0.248995
    124 H                     0.248350
    125 C                    -0.548694
    126 H                     0.253146
    127 H                     0.234864
    128 C                    -0.649272
    129 H                     0.244123
    130 H                     0.222839
    131 H                     0.219649
    132 S                     0.180281
  ----------------------------------------
  Sum of atomic charges =    -0.000000

                    Cartesian Multipole Moments
 -----------------------------------------------------------------
    Charge (ESU x 10^10)
                -0.0000
    Dipole Moment (Debye)
         X       0.5584      Y       0.6924      Z      -0.4273
       Tot       0.9868
    Quadrupole Moments (Debye-Ang)
        XX    -487.5559     XY     -29.4573     YY    -476.7770
        XZ      59.5423     YZ     -17.4631     ZZ    -443.9793

 Total job time:  21824.41s(wall), 72915.17s(cpu)
        *  Thank you very much for using Q-Chem.  Have a nice day.  *
