 Q-Chem 5.1, Q-Chem, Inc., Pleasanton, CA (2018)
 Q-Chem 5.1.1 for Intel X86 EM64T Linux

User input:
--------------------------------------------------------------
$rem
threads 8
jobtype	opt
method PBEh-3c
basis def2-mSVP
mem_static	1024
mem_total	12000
sym_ignore	true
cis_n_roots             2
cis_singlets            true
cis_triplets		false
rpa                     false
cis_state_deriv         1
$end

$molecule
read s1opt.mol
$end

--------------------------------------------------------------

   15   -3799.4165179364      9.21e-09  Convergence criterion met
 Total energy in the final basis set =    -3799.4165179364
   11   -3799.4166089225      9.51e-09  Convergence criterion met
 Total energy in the final basis set =    -3799.4166089225
   11   -3799.4158772679      9.35e-09  Convergence criterion met
 Total energy in the final basis set =    -3799.4158772679
   12   -3799.4150747919      5.57e-09  Convergence criterion met
 Total energy in the final basis set =    -3799.4150747919
   11   -3799.4153729332      5.25e-09  Convergence criterion met
 Total energy in the final basis set =    -3799.4153729332
   10   -3799.4155254668      8.57e-09  Convergence criterion met
 Total energy in the final basis set =    -3799.4155254668
   11   -3799.4152347136      5.21e-09  Convergence criterion met
 Total energy in the final basis set =    -3799.4152347136
   10   -3799.4152732188      8.21e-09  Convergence criterion met
    9   -3799.4153935379      9.36e-09  Convergence criterion met
 Total energy in the final basis set =    -3799.4153935379
    9   -3799.4153821955      6.72e-09  Convergence criterion met
 Total energy in the final basis set =    -3799.4153821955
    9   -3799.4153458181      4.78e-09  Convergence criterion met
 Total energy in the final basis set =    -3799.4153458181
    8   -3799.4153601431      6.73e-09  Convergence criterion met
 Total energy in the final basis set =    -3799.4153601431
    8   -3799.4153957070      6.61e-09  Convergence criterion met
 Total energy in the final basis set =    -3799.4153957070
    7   -3799.4153929421      7.25e-09  Convergence criterion met
 Total energy in the final basis set =    -3799.4153929421

             Standard Nuclear Orientation (Angstroms)
    I     Atom           X                Y                Z
 ----------------------------------------------------------------
    1      S       0.1310761277     0.3382953028     0.3020499829
    2      C       0.0433705397     0.3400677619     2.0588914849
    3      C       1.2182810555     0.3621795067     2.7928864384
    4      H       2.1580156567     0.5029814856     2.2739281065
    5      C       1.1945816116     0.1760024169     4.1660649243
    6      H       2.1166629903     0.1733757713     4.7308724624
    7      C      -0.0235436434    -0.0160571173     4.7938172656
    8      H      -0.0671156338    -0.1752526386     5.8632053693
    9      C      -1.2065314466     0.0053238384     4.0714708452
   10      H      -2.1423446962    -0.1405291919     4.5911298489
   11      C      -1.1964807714     0.1935112766     2.6894691161
   12      N      -2.3788458413     0.2277215336     1.9389631192
   13      C      -2.4830457440     0.9823282344     0.7638333758
   14      C      -3.6979557113     1.5367059486     0.3591138797
   15      H      -4.5872702822     1.3819975780     0.9527278070
   16      C      -3.7895557283     2.2693875783    -0.8138672991
   17      H      -4.7504489596     2.6722035350    -1.1062870798
   18      C      -2.6711451021     2.4937399138    -1.5974053882
   19      H      -2.7390717746     3.0726364752    -2.5084152969
   20      C      -1.4563617378     1.9562535331    -1.2015916251
   21      H      -0.5682269482     2.1116510064    -1.8010483912
   22      C      -1.3670018271     1.1868306665    -0.0525472916
   23      C      -3.5923547659    -0.1880324626     2.5625529863
   24      C      -4.1084178536    -1.4325595449     2.2623276511
   25      H      -3.5797203461    -2.0651743376     1.5578127818
   26      C      -4.2734904219     0.6489513003     3.4369303980
   27      H      -3.8768560753     1.6365525589     3.6456544130
   28      C      -5.4496446284     0.2258781432     4.0393140248
   29      C      -5.2964724954    -1.8682590849     2.8476029418
   30      C      -5.9685078024    -1.0493552706     3.7609857250
   31      C      -6.1716092989     1.1316938064     4.9965504871
   32      H      -5.7128618912     2.1196111743     5.0406967743
   33      H      -6.1722751011     0.7168236903     6.0065566635
   34      H      -7.2166693925     1.2590926040     4.7079644507
   35      C      -5.8111745764    -3.2421946948     2.4995018700
   36      H      -6.8921165570    -3.2862265397     2.6493904754
   37      H      -5.6454050894    -3.4281617407     1.4345353540
   38      C      -5.1447708089    -4.3494789012     3.3126687294
   39      H      -5.3568996801    -4.2387208892     4.3756538758
   40      H      -5.5072472051    -5.3307628082     3.0034267991
   41      H      -4.0615097943    -4.3384778195     3.1845164697
   42      B      -7.2774484804    -1.5260138291     4.5135778328
   43      C      -7.1554100457    -2.1854239871     5.8989293567
   44      C      -5.8922655033    -2.4948902288     6.4355492451
   45      H      -5.0016171768    -2.1980215864     5.8909813851
   46      C      -5.7770879467    -3.2142697204     7.6036812307
   47      C      -6.9492651313    -3.6182108086     8.3048694669
   48      C      -8.1916745744    -3.2771333316     7.8277466064
   49      H      -9.0797109926    -3.5909933115     8.3681146584
   50      C      -8.3302973248    -2.5739513087     6.6173395693
   51      C      -4.6244091775    -3.7924895756     8.2861378781
   52      C      -3.2706979627    -3.8195817487     8.0618571633
   53      H      -2.8191897759    -3.2845329552     7.2356126508
   54      C      -5.1366445565    -4.5361608286     9.3699029051
   55      C      -4.3651985673    -5.3188345711    10.2232486423
   56      C      -6.5428967765    -4.4551617169     9.4259431417
   57      C      -7.2031907731    -5.1764587363    10.3892836614
   58      H      -8.2835452534    -5.1651165124    10.4668941441
   59      C      -2.4600705781    -4.5901473172     8.9248724836
   60      H      -1.3932848374    -4.6145107384     8.7424786594
   61      C      -2.9718676153    -5.3213362454     9.9726862240
   62      H      -2.3092941437    -5.9092042629    10.5958180764
   63      C      -6.4439987409    -5.9669382974    11.2790836616
   64      H      -6.9638106244    -6.5410926214    12.0358959572
   65      C      -5.0715906259    -6.0473606845    11.2108880517
   66      H      -4.5332605362    -6.6800851640    11.9058202831
   67      B      -9.7090113780    -2.2956886640     6.0220172815
   68      C      -9.8386463766    -1.7219107955     4.6131787626
   69      C     -11.0976469677    -1.6029496250     3.9954589758
   70      H     -11.9935195957    -1.8792212108     4.5434109064
   71      C     -11.2091491732    -1.1662538161     2.6996005547
   72      C     -10.0415364763    -0.7966909406     1.9679991265
   73      C      -8.8036425246    -0.8812186791     2.5617081264
   74      H      -7.9154568306    -0.6035035882     2.0033914258
   75      C      -8.6667571434    -1.3545414002     3.8792066209
   76      C     -10.4581542933    -0.4156994155     0.6221856527
   77      C      -9.8215321025    -0.0033118348    -0.5240232522
   78      H      -8.7474818274     0.1274189125    -0.5634474151
   79      C     -11.8594571188    -0.5712462596     0.5811960528
   80      C     -12.6452701728    -0.3412751658    -0.5472829754
   81      C     -12.3631361444    -1.0228072049     1.8171756710
   82      C     -13.7151971238    -1.2485258106     1.9228667475
   83      H     -14.1599741823    -1.6104317780     2.8421186111
   84      C     -10.5948994328     0.2445487850    -1.6806350217
   85      H     -10.0866645657     0.5666826960    -2.5807095822
   86      C     -11.9613754532     0.0860619346    -1.7102657838
   87      H     -12.5113288423     0.2819016772    -2.6228025554
   88      C     -14.5361770718    -1.0163282689     0.7974574385
   89      H     -15.6003451367    -1.1983974267     0.8840725815
   90      C     -14.0339222980    -0.5770120820    -0.4060457792
   91      H     -14.6995564705    -0.4185568062    -1.2459972771
   92      C     -11.0353908619    -2.6437097428     6.8308252522
   93      C     -11.6096259830    -1.7062968692     7.6985933529
   94      C     -12.8030274840    -1.9951723112     8.3565882739
   95      H     -13.2577742513    -1.2642431608     9.0164203482
   96      C     -13.4149900046    -3.2098673345     8.1345472575
   97      C     -12.8667632194    -4.1600354083     7.2941308771
   98      H     -13.3742753562    -5.1048254548     7.1348082522
   99      C     -11.6704622498    -3.8831054096     6.6437460489
  100      N     -14.7008249657    -3.4817973364     8.7372001059
  101      C     -15.8115287709    -3.0806861167     8.0333923068
  102      C     -14.7206764597    -4.1452739885     9.9388232476
  103      C     -15.6646923934    -2.4119346001     6.8021364185
  104      H     -14.6790935181    -2.2156527590     6.4124957775
  105      C     -16.7633463479    -2.0067800053     6.0888897436
  106      H     -16.6159346205    -1.4958214784     5.1483664623
  107      C     -18.0601422762    -2.2433367014     6.5567989481
  108      H     -18.9172284905    -1.9176925074     5.9856984207
  109      C     -18.2345548762    -2.8973814039     7.7492585818
  110      H     -19.2304803937    -3.0945545806     8.1250798777
  111      C     -17.1263505054    -3.3201520669     8.4877755922
  112      C     -13.5105115637    -4.4990960884    10.5636503263
  113      H     -12.5751112988    -4.2396923454    10.0939139744
  114      C     -13.5110848801    -5.1728957080    11.7573433787
  115      H     -12.5661502383    -5.4317267898    12.2126313579
  116      C     -14.7084590755    -5.5269688443    12.3885382012
  117      H     -14.6958747283    -6.0580217892    13.3290390412
  118      C     -15.9028332903    -5.1933394886    11.8027099126
  119      H     -16.8388011382    -5.4594910806    12.2770682184
  120      C     -15.9222040310    -4.5072121180    10.5859688328
  121      C     -11.0772209545    -4.9020017534     5.7155047691
  122      H     -11.6297529724    -5.8415169138     5.7358233800
  123      H     -11.0716574797    -4.5348786479     4.6881029559
  124      H     -10.0393278488    -5.1110439397     5.9757291215
  125      C     -11.0065638855    -0.3402777714     7.8800873900
  126      H      -9.9310743479    -0.3856667597     7.7062026037
  127      H     -11.1402491840    -0.0129015909     8.9149240238
  128      C     -11.6358440216     0.6817814232     6.9345418413
  129      H     -11.4918830893     0.3924126539     5.8943092618
  130      H     -11.1839343593     1.6642164937     7.0707101636
  131      H     -12.7085040919     0.7822567028     7.1120645066
  132      S     -17.4775435221    -4.1534506846     9.9474554076
 ----------------------------------------------------------------

    7   -3799.4153837215      6.22e-09  Convergence criterion met
 Total energy in the final basis set =    -3799.4153837215

         TDDFT/TDA Excitation Energies
 ---------------------------------------------------

 Excited state   1: excitation energy (eV) =    1.8466
 Total energy for state  1:                 -3799.34752076 au
    Multiplicity: Singlet
    Trans. Mom.: -0.0236 X  -0.0077 Y   0.0160 Z
    Strength   :     0.0000395278
    D(276) --> V(  1) amplitude =  0.9988

 Excited state   2: excitation energy (eV) =    2.4635
 Total energy for state  2:                 -3799.32485068 au
    Multiplicity: Singlet
    Trans. Mom.:  0.0171 X   0.0034 Y  -0.0014 Z
    Strength   :     0.0000184367
    D(275) --> V(  1) amplitude =  0.9979

 ---------------------------------------------------

 Final energy is   -3799.34752076123
 **  OPTIMIZATION CONVERGED  **

                    Orbital Energies (a.u.)
 --------------------------------------------------------------

 Alpha MOs
 -- Occupied --
-89.592 -89.591 -14.682 -14.681 -10.503 -10.502 -10.501 -10.500
-10.491 -10.489 -10.480 -10.479 -10.478 -10.478 -10.473 -10.473
-10.473 -10.473 -10.473 -10.472 -10.472 -10.472 -10.472 -10.472
-10.470 -10.470 -10.470 -10.469 -10.469 -10.469 -10.469 -10.468
-10.467 -10.466 -10.466 -10.466 -10.465 -10.465 -10.464 -10.464
-10.464 -10.464 -10.462 -10.461 -10.455 -10.454 -10.452 -10.451
-10.450 -10.450 -10.450 -10.450 -10.449 -10.448 -10.448 -10.448
-10.446 -10.446 -10.445 -10.445 -10.445 -10.444 -10.444 -10.444
-10.444 -10.444 -10.443 -10.443 -10.443 -10.443 -10.440 -10.439
-10.438 -10.437 -10.437 -10.436 -10.428 -10.427  -8.232  -8.232
 -6.958  -6.955  -6.124  -6.123  -6.120  -6.120  -6.115  -6.114
 -1.098  -1.090  -1.023  -1.023  -0.978  -0.976  -0.969  -0.967
 -0.967  -0.965  -0.956  -0.953  -0.941  -0.940  -0.917  -0.907
 -0.904  -0.900  -0.894  -0.892  -0.871  -0.865  -0.864  -0.860
 -0.859  -0.856  -0.854  -0.854  -0.843  -0.843  -0.832  -0.824
 -0.822  -0.821  -0.820  -0.812  -0.812  -0.811  -0.778  -0.777
 -0.765  -0.761  -0.744  -0.740  -0.735  -0.728  -0.723  -0.722
 -0.720  -0.716  -0.716  -0.710  -0.697  -0.688  -0.687  -0.680
 -0.677  -0.675  -0.661  -0.655  -0.653  -0.653  -0.648  -0.646
 -0.633  -0.630  -0.622  -0.617  -0.605  -0.603  -0.600  -0.597
 -0.592  -0.591  -0.591  -0.584  -0.584  -0.565  -0.563  -0.561
 -0.555  -0.552  -0.546  -0.545  -0.539  -0.537  -0.536  -0.533
 -0.529  -0.528  -0.525  -0.521  -0.517  -0.516  -0.512  -0.508
 -0.506  -0.502  -0.502  -0.499  -0.499  -0.498  -0.497  -0.497
 -0.496  -0.493  -0.491  -0.491  -0.489  -0.487  -0.484  -0.483
 -0.481  -0.479  -0.479  -0.477  -0.477  -0.476  -0.475  -0.471
 -0.465  -0.463  -0.457  -0.454  -0.450  -0.449  -0.448  -0.445
 -0.441  -0.441  -0.438  -0.435  -0.432  -0.430  -0.430  -0.429
 -0.427  -0.427  -0.424  -0.418  -0.417  -0.417  -0.406  -0.405
 -0.404  -0.403  -0.402  -0.402  -0.401  -0.401  -0.399  -0.398
 -0.392  -0.392  -0.391  -0.389  -0.387  -0.381  -0.379  -0.376
 -0.374  -0.370  -0.366  -0.362  -0.360  -0.357  -0.347  -0.345
 -0.329  -0.323  -0.307  -0.303  -0.303  -0.302  -0.300  -0.297
 -0.289  -0.288  -0.286  -0.285  -0.284  -0.269  -0.265  -0.263
 -0.263  -0.262  -0.220  -0.197

          Ground-State Mulliken Net Atomic Charges

     Atom                 Charge (a.u.)
  ----------------------------------------
      1 S                     0.143802
      2 C                    -0.194696
      3 C                    -0.246407
      4 H                     0.231849
      5 C                    -0.232971
      6 H                     0.218651
      7 C                    -0.222483
      8 H                     0.217644
      9 C                    -0.301884
     10 H                     0.253756
     11 C                     0.429139
     12 N                    -0.712322
     13 C                     0.424348
     14 C                    -0.296231
     15 H                     0.254279
     16 C                    -0.223380
     17 H                     0.217359
     18 C                    -0.232142
     19 H                     0.218566
     20 C                    -0.248232
     21 H                     0.231226
     22 C                    -0.187821
     23 C                     0.214601
     24 C                    -0.297653
     25 H                     0.226364
     26 C                    -0.325351
     27 H                     0.238288
     28 C                     0.039529
     29 C                     0.059170
     30 C                    -0.211466
     31 C                    -0.763186
     32 H                     0.242581
     33 H                     0.247882
     34 H                     0.248741
     35 C                    -0.547590
     36 H                     0.250517
     37 H                     0.236037
     38 C                    -0.645821
     39 H                     0.240116
     40 H                     0.223310
     41 H                     0.219387
     42 B                     0.682753
     43 C                    -0.146653
     44 C                    -0.396180
     45 H                     0.237009
     46 C                     0.105058
     47 C                     0.101306
     48 C                    -0.385167
     49 H                     0.225594
     50 C                    -0.148834
     51 C                     0.190928
     52 C                    -0.378645
     53 H                     0.222126
     54 C                    -0.063400
     55 C                     0.250497
     56 C                     0.192565
     57 C                    -0.373260
     58 H                     0.218427
     59 C                    -0.204204
     60 H                     0.230122
     61 C                    -0.331971
     62 H                     0.223950
     63 C                    -0.204366
     64 H                     0.229426
     65 C                    -0.331032
     66 H                     0.223832
     67 B                     0.666853
     68 C                    -0.135992
     69 C                    -0.396295
     70 H                     0.235149
     71 C                     0.100156
     72 C                     0.108023
     73 C                    -0.390629
     74 H                     0.226655
     75 C                    -0.153061
     76 C                     0.197096
     77 C                    -0.379030
     78 H                     0.220521
     79 C                    -0.066358
     80 C                     0.250216
     81 C                     0.199627
     82 C                    -0.379624
     83 H                     0.218609
     84 C                    -0.203663
     85 H                     0.229569
     86 C                    -0.331365
     87 H                     0.224179
     88 C                    -0.203391
     89 H                     0.229682
     90 C                    -0.331039
     91 H                     0.224181
     92 C                    -0.213165
     93 C                     0.054258
     94 C                    -0.280592
     95 H                     0.230931
     96 C                     0.148149
     97 C                    -0.276553
     98 H                     0.232259
     99 C                     0.032910
    100 N                    -0.716412
    101 C                     0.438563
    102 C                     0.443882
    103 C                    -0.302042
    104 H                     0.255301
    105 C                    -0.222054
    106 H                     0.209760
    107 C                    -0.235947
    108 H                     0.216235
    109 C                    -0.238788
    110 H                     0.228944
    111 C                    -0.208724
    112 C                    -0.305983
    113 H                     0.254908
    114 C                    -0.222499
    115 H                     0.212862
    116 C                    -0.236265
    117 H                     0.216533
    118 C                    -0.238937
    119 H                     0.228586
    120 C                    -0.209943
    121 C                    -0.757036
    122 H                     0.241792
    123 H                     0.248432
    124 H                     0.247270
    125 C                    -0.553898
    126 H                     0.254280
    127 H                     0.237272
    128 C                    -0.648422
    129 H                     0.243619
    130 H                     0.222783
    131 H                     0.219952
    132 S                     0.180325
  ----------------------------------------
  Sum of atomic charges =    -0.000000

                    Cartesian Multipole Moments
 -----------------------------------------------------------------
    Charge (ESU x 10^10)
                -0.0000
    Dipole Moment (Debye)
         X       0.5876      Y      -0.6983      Z      -0.6661
       Tot       1.1298
    Quadrupole Moments (Debye-Ang)
        XX    -492.0721     XY     -16.7385     YY    -467.7816
        XZ      60.0675     YZ     -24.8818     ZZ    -447.1864

 Total job time:  59026.80s(wall), 410501.65s(cpu)
        *  Thank you very much for using Q-Chem.  Have a nice day.  *
