 Q-Chem 5.0, Q-Chem, Inc., Pleasanton, CA (2017)
 Q-Chem 5.0.1 for Intel X86 EM64T Linux

User input:
--------------------------------------------------------------
$rem
threads 8
jobtype	opt
method PBEh-3c
basis def2-mSVP
mem_static	1024
mem_total	10000
sym_ignore	true
cis_n_roots             2
cis_singlets            false
cis_triplets		true
rpa                     false
cis_state_deriv         1
$end

$molecule
read incoords.mol
$end

--------------------------------------------------------------

   15   -3799.3595441409      7.95E-09 Convergence criterion met
 Total energy in the final basis set = -3799.35954414
   12   -3799.3960783233      8.11E-09 Convergence criterion met
 Total energy in the final basis set = -3799.39607832
   12   -3799.4081480994      9.18E-09 Convergence criterion met
 Total energy in the final basis set = -3799.40814810
   12   -3799.4099025379      6.53E-09 Convergence criterion met
 Total energy in the final basis set = -3799.40990254
   12   -3799.4099823214      7.56E-09 Convergence criterion met
 Total energy in the final basis set = -3799.40998232
   12   -3799.4107602297      7.27E-09 Convergence criterion met
 Total energy in the final basis set = -3799.41076023
   12   -3799.4116236330      6.19E-09 Convergence criterion met
 Total energy in the final basis set = -3799.41162363
   11   -3799.4119668969      9.64E-09 Convergence criterion met
   11   -3799.4169374789      7.37E-09 Convergence criterion met
 Total energy in the final basis set = -3799.41693748
   11   -3799.4169118792      7.01E-09 Convergence criterion met
 Total energy in the final basis set = -3799.41691188
   11   -3799.4169228981      4.82E-09 Convergence criterion met
 Total energy in the final basis set = -3799.41692290
   10   -3799.4168835369      5.78E-09 Convergence criterion met
 Total energy in the final basis set = -3799.41688354
   10   -3799.4169264035      4.38E-09 Convergence criterion met
 Total energy in the final basis set = -3799.41692640
    9   -3799.4169231314      4.80E-09 Convergence criterion met
 Total energy in the final basis set = -3799.41692313

             Standard Nuclear Orientation (Angstroms)
    I     Atom           X                Y                Z
 ----------------------------------------------------------------
    1      C      -4.9053333370    -0.1319814141     4.4322525859
    2      C      -5.5357838563    -0.6149593906     3.2905255902
    3      C      -4.8021426503    -0.8203736632     2.1117763101
    4      C      -3.4329307503    -0.5183639789     2.0948312534
    5      C      -2.8079281037    -0.0395457728     3.2435256477
    6      C      -3.5520308319     0.1386194424     4.3916654634
    7      N      -2.8895790081     0.5617177744     5.6012574766
    8      C      -6.9980940230    -0.9525454098     3.3341879086
    9      C      -2.6168057279    -0.7095233643     0.8440081856
   10      C      -2.4572499628    -0.4283695886     6.4499668753
   11      C      -1.7942921767    -0.1521562732     7.6632269901
   12      C      -3.2604529943     2.8233147461     4.8714272664
   13      C      -2.7478522304     1.9102775448     5.8122619898
   14      C      -3.1173611165     4.1731659098     5.0603516907
   15      C      -2.4627689018     4.6802441512     6.1881350224
   16      C      -1.9603712994     3.8123265660     7.1243301539
   17      C      -2.0977651539     2.4331135526     6.9491131614
   18      C      -2.6716001730    -1.7810705876     6.1175634409
   19      C      -2.2569124426    -2.7817429592     6.9569610280
   20      C      -1.6074294546    -2.4931188472     8.1620525878
   21      C      -1.3775302249    -1.1854892593     8.5066400327
   22      C      -6.9813522713    -1.2884397763    -1.2325704895
   23      C      -6.3548749877    -0.6460160225    -0.1181547354
   24      B      -5.5176597969    -1.4825959591     0.8517394626
   25      C      -5.3756934365    -2.9951949835     0.6546293799
   26      C      -5.9965330921    -3.6241589216    -0.4706661464
   27      B      -6.8183291141    -2.7983926589    -1.4652752119
   28      C      -4.6447198978    -3.7906100916     1.5603510696
   29      C      -4.5199673774    -5.1458626296     1.3724777899
   30      C      -5.1372027896    -5.7653276084     0.2462906704
   31      C      -5.8535441959    -5.0098646870    -0.6502021163
   32      C      -7.7600835005    -0.5243029090    -2.1147843639
   33      C      -7.9304130472     0.8241493059    -1.9153555847
   34      C      -7.3107124578     1.4741481292    -0.8092047004
   35      C      -6.5379141988     0.7412333149     0.0618566053
   36      C      -3.0814920213    -6.2322494376     3.2818542201
   37      C      -2.5806595471    -7.4780146760     3.7201572042
   38      C      -2.8221446228    -8.6534767225     3.0463313866
   39      C      -3.5970769880    -8.6419478043     1.8627191113
   40      C      -4.0751492738    -7.3990786135     1.4540710270
   41      C      -3.8401396534    -6.1882763380     2.1376865293
   42      C      -3.9401318444    -9.7464326044     1.0451502626
   43      C      -4.7046334152    -9.5554117209    -0.0831075986
   44      C      -5.1750327060    -8.2833055927    -0.4769689434
   45      C      -4.8571075729    -7.1942918580     0.2989173867
   46      C      -7.9971425741     5.2346805574    -0.4892026532
   47      C      -7.4256368350     4.0013768785    -0.1020012734
   48      C      -7.6821692775     2.8880349437    -0.8624149428
   49      C      -8.5104321750     3.0384646977    -1.9948570319
   50      C      -9.0906420067     4.2365162400    -2.3996724028
   51      C      -8.8037751657     5.3658871961    -1.5967824088
   52      C      -8.6907969817     1.8114630299    -2.6638917156
   53      C      -9.4846679509     1.7799430042    -3.7839753083
   54      C     -10.0830467325     2.9831731669    -4.2172604148
   55      C      -9.9018036309     4.1787981602    -3.5598176190
   56      C      -9.3584488572    -4.5057065636    -3.8621710977
   57      C      -8.7935486506    -3.9520146817    -2.7147966790
   58      C      -7.4773615764    -3.4796728846    -2.7347061249
   59      C      -6.7391502653    -3.5895492791    -3.9258791785
   60      C      -7.3181254510    -4.1409436601    -5.0597432727
   61      C      -8.6302920428    -4.5942674251    -5.0301480241
   62      N      -9.2482916239    -5.1377348233    -6.1959763296
   63      C      -9.6262525151    -3.9141423842    -1.4600258702
   64      C      -5.3192200978    -3.1013286382    -3.9808291894
   65      C      -9.7659703708    -4.2399849602    -7.1401222562
   66      C      -9.4746644292    -2.8769167753    -7.0991450061
   67      C      -9.7179644930    -7.1259570788    -7.5098409358
   68      C      -8.9594533780    -6.4651294475    -6.5375493897
   69      C      -9.4121715048    -8.4203616625    -7.8975128264
   70      C      -8.3836871358    -9.1161094100    -7.2821786094
   71      C      -7.6566450682    -8.4884886100    -6.2863299167
   72      C      -7.9274246633    -7.1771513001    -5.9262928393
   73      C     -10.6015278516    -4.6991819052    -8.1643767581
   74      C     -11.0757698289    -3.8366227938    -9.1389829115
   75      C     -10.7799078981    -2.4839835516    -9.0862149730
   76      C      -9.9881750214    -2.0124127275    -8.0538147622
   77      H      -5.4635407453     0.0049214702     5.3513603929
   78      H      -1.7441533362     0.1699957323     3.2404498884
   79      H      -7.1631679066    -1.9918629009     3.0466175802
   80      H      -7.5649344469    -0.3439431114     2.6291010493
   81      H      -7.4202228820    -0.8030479767     4.3277951995
   82      H      -2.9273552561    -1.6293039656     0.3459579167
   83      H      -1.5648768770    -0.8435819974     1.1103219448
   84      C      -2.7504972531     0.4614632171    -0.1272722637
   85      H      -3.7685023895     2.4549799994     3.9938709424
   86      H      -3.5199051420     4.8503357430     4.3209252025
   87      H      -2.3546333324     5.7461260887     6.3247992444
   88      H      -1.4553399668     4.1880974729     8.0047557270
   89      H      -3.1697538282    -2.0361607655     5.1959338233
   90      H      -2.4394452387    -3.8088669123     6.6751797813
   91      H      -1.2868140838    -3.2911409537     8.8156457326
   92      H      -0.8715735058    -0.9447111699     9.4326309093
   93      H      -4.1736177732    -3.3274123186     2.4211183632
   94      H      -6.3213090459    -5.4844072216    -1.5075741305
   95      H      -8.2367308772    -1.0131219537    -2.9586062250
   96      H      -6.0611234575     1.2352888615     0.9031351640
   97      H      -2.8571999802    -5.3363785563     3.8476703259
   98      H      -1.9816928407    -7.5088326132     4.6217217582
   99      H      -2.4179244243    -9.5863195460     3.4202870744
  100      H      -3.6020110813   -10.7417421199     1.3066778658
  101      H      -4.9579677961   -10.4115685271    -0.6958138460
  102      H      -5.7740578645    -8.1899231740    -1.3744941388
  103      H      -7.7923013617     6.1103646901     0.1135720562
  104      H      -6.8027120794     3.9538778916     0.7824931722
  105      H      -9.2205641978     6.3325870262    -1.8513959372
  106      H      -9.6623013879     0.8625865783    -4.3321386307
  107      H     -10.7098865109     2.9599037056    -5.0998033735
  108      H     -10.3834907743     5.0756152411    -3.9295343037
  109      H     -10.3825916508    -4.8626894262    -3.8542815380
  110      H      -6.7520297467    -4.2130450997    -5.9826110213
  111      H     -10.6488068971    -3.6180483970    -1.7108963492
  112      H      -9.2467802341    -3.1496383520    -0.7788607713
  113      C      -9.6521090257    -5.2641372656    -0.7475638602
  114      H      -4.8956433347    -3.2157534825    -4.9786662134
  115      H      -4.6855933941    -3.6505912161    -3.2819158773
  116      H      -5.2509591662    -2.0469112074    -3.7064190418
  117      H      -8.8503852748    -2.4815408660    -6.3112812850
  118      H     -10.0051824163    -8.8901307424    -8.6722590528
  119      H      -8.1637430060   -10.1341074745    -7.5736117942
  120      H      -6.8563918822    -9.0144396833    -5.7824256027
  121      H      -7.3354922971    -6.7139920127    -5.1506479102
  122      H     -11.6980044649    -4.2316070882    -9.9323318403
  123      H     -11.1685951586    -1.8123477421    -9.8394477127
  124      H      -9.7495642353    -0.9591029895    -7.9878567456
  125      H     -10.0456339444    -6.0468217145    -1.3978230266
  126      H     -10.2790037670    -5.2248315231     0.1441775164
  127      H      -8.6505590070    -5.5611628040    -0.4372240699
  128      H      -2.1278404686     0.3014092987    -1.0075744330
  129      H      -2.4404724068     1.4000633209     0.3347841975
  130      H      -3.7783998528     0.5762562902    -0.4679006268
  131      S     -11.1693812898    -6.3627504765    -8.1408093595
  132      S      -1.4368511547     1.4434270942     8.1890479974
 ----------------------------------------------------------------

    8   -3799.4169273507      7.13E-09 Convergence criterion met
 Total energy in the final basis set = -3799.41692735

         TDDFT/TDA Excitation Energies
 ---------------------------------------------------

 Excited state   1: excitation energy (eV) =    1.8370
 Total energy for state  1:                 -3799.34941720 au
    Multiplicity: Triplet
    Trans. Mom.:  0.0000 X   0.0000 Y   0.0000 Z
    Strength   :     0.0000000000
    D(276) --> V(  1) amplitude =  0.9985

 Excited state   2: excitation energy (eV) =    2.4970
 Total energy for state  2:                 -3799.32516588 au
    Multiplicity: Triplet
    Trans. Mom.:  0.0000 X   0.0000 Y   0.0000 Z
    Strength   :     0.0000000000
    D(275) --> V(  1) amplitude =  0.9981

 ---------------------------------------------------

 Final energy is   -3799.34941720036
 **  OPTIMIZATION CONVERGED  **

                    Orbital Energies (a.u.)
 --------------------------------------------------------------

 Alpha MOs
 -- Occupied --
-89.592 -89.591 -14.682 -14.682 -10.502 -10.502 -10.501 -10.500
-10.490 -10.489 -10.480 -10.479 -10.478 -10.478 -10.473 -10.473
-10.473 -10.473 -10.473 -10.472 -10.472 -10.472 -10.472 -10.471
-10.470 -10.470 -10.470 -10.470 -10.470 -10.469 -10.469 -10.468
-10.467 -10.467 -10.466 -10.466 -10.465 -10.465 -10.465 -10.464
-10.463 -10.462 -10.462 -10.461 -10.455 -10.455 -10.452 -10.452
-10.450 -10.450 -10.450 -10.449 -10.449 -10.449 -10.448 -10.448
-10.447 -10.446 -10.445 -10.445 -10.445 -10.444 -10.444 -10.444
-10.444 -10.444 -10.444 -10.443 -10.443 -10.443 -10.440 -10.439
-10.438 -10.438 -10.437 -10.436 -10.428 -10.427  -8.232  -8.232
 -6.957  -6.956  -6.124  -6.123  -6.120  -6.120  -6.115  -6.114
 -1.098  -1.090  -1.023  -1.023  -0.978  -0.977  -0.969  -0.967
 -0.967  -0.965  -0.955  -0.953  -0.941  -0.941  -0.917  -0.907
 -0.904  -0.900  -0.893  -0.893  -0.871  -0.864  -0.864  -0.860
 -0.859  -0.857  -0.854  -0.854  -0.843  -0.843  -0.832  -0.824
 -0.822  -0.821  -0.820  -0.812  -0.812  -0.811  -0.778  -0.777
 -0.765  -0.761  -0.744  -0.740  -0.735  -0.728  -0.724  -0.722
 -0.720  -0.717  -0.715  -0.710  -0.697  -0.688  -0.687  -0.680
 -0.677  -0.675  -0.661  -0.655  -0.653  -0.653  -0.648  -0.646
 -0.634  -0.629  -0.622  -0.617  -0.605  -0.603  -0.600  -0.597
 -0.592  -0.591  -0.591  -0.584  -0.584  -0.565  -0.564  -0.561
 -0.555  -0.552  -0.546  -0.545  -0.539  -0.537  -0.536  -0.533
 -0.529  -0.528  -0.525  -0.521  -0.517  -0.516  -0.512  -0.509
 -0.505  -0.502  -0.501  -0.500  -0.499  -0.498  -0.498  -0.497
 -0.497  -0.492  -0.491  -0.491  -0.488  -0.487  -0.484  -0.483
 -0.481  -0.479  -0.479  -0.478  -0.477  -0.475  -0.475  -0.472
 -0.466  -0.463  -0.457  -0.453  -0.449  -0.449  -0.447  -0.445
 -0.441  -0.440  -0.438  -0.434  -0.432  -0.430  -0.430  -0.430
 -0.428  -0.427  -0.423  -0.418  -0.417  -0.417  -0.406  -0.405
 -0.404  -0.403  -0.402  -0.402  -0.401  -0.401  -0.399  -0.398
 -0.393  -0.392  -0.391  -0.389  -0.387  -0.381  -0.380  -0.376
 -0.373  -0.370  -0.366  -0.361  -0.360  -0.357  -0.347  -0.344
 -0.329  -0.323  -0.307  -0.304  -0.303  -0.302  -0.300  -0.297
 -0.290  -0.287  -0.286  -0.285  -0.285  -0.269  -0.266  -0.264
 -0.262  -0.262  -0.222  -0.197

          Ground-State Mulliken Net Atomic Charges

     Atom                 Charge (a.u.)
  ----------------------------------------
      1 C                    -0.281403
      2 C                     0.030027
      3 C                    -0.204322
      4 C                     0.058997
      5 C                    -0.281781
      6 C                     0.145310
      7 N                    -0.715691
      8 C                    -0.760039
      9 C                    -0.548347
     10 C                     0.440279
     11 C                    -0.209193
     12 C                    -0.305580
     13 C                     0.445098
     14 C                    -0.222917
     15 C                    -0.236493
     16 C                    -0.239434
     17 C                    -0.211074
     18 C                    -0.301897
     19 C                    -0.222255
     20 C                    -0.235995
     21 C                    -0.239648
     22 C                    -0.156100
     23 C                    -0.142121
     24 B                     0.666733
     25 C                    -0.147489
     26 C                    -0.145014
     27 B                     0.679474
     28 C                    -0.385410
     29 C                     0.114262
     30 C                     0.095966
     31 C                    -0.397341
     32 C                    -0.381532
     33 C                     0.094723
     34 C                     0.115383
     35 C                    -0.402930
     36 C                    -0.381642
     37 C                    -0.202684
     38 C                    -0.333564
     39 C                     0.252217
     40 C                    -0.068157
     41 C                     0.200240
     42 C                    -0.330338
     43 C                    -0.204484
     44 C                    -0.377151
     45 C                     0.198349
     46 C                    -0.202351
     47 C                    -0.382797
     48 C                     0.199434
     49 C                    -0.066451
     50 C                     0.253247
     51 C                    -0.335174
     52 C                     0.195279
     53 C                    -0.373413
     54 C                    -0.206065
     55 C                    -0.329915
     56 C                    -0.298256
     57 C                     0.060055
     58 C                    -0.215666
     59 C                     0.040056
     60 C                    -0.323925
     61 C                     0.216606
     62 N                    -0.710625
     63 C                    -0.547911
     64 C                    -0.759989
     65 C                     0.423783
     66 C                    -0.296365
     67 C                    -0.192280
     68 C                     0.425665
     69 C                    -0.246322
     70 C                    -0.232570
     71 C                    -0.221455
     72 C                    -0.299061
     73 C                    -0.191088
     74 C                    -0.246334
     75 C                    -0.231956
     76 C                    -0.223332
     77 H                     0.232779
     78 H                     0.230429
     79 H                     0.248447
     80 H                     0.249051
     81 H                     0.242197
     82 H                     0.252997
     83 H                     0.234764
     84 C                    -0.649340
     85 H                     0.255992
     86 H                     0.213516
     87 H                     0.216487
     88 H                     0.228664
     89 H                     0.256540
     90 H                     0.209210
     91 H                     0.216064
     92 H                     0.228857
     93 H                     0.228683
     94 H                     0.231687
     95 H                     0.228156
     96 H                     0.230031
     97 H                     0.219414
     98 H                     0.229322
     99 H                     0.224174
    100 H                     0.224007
    101 H                     0.229498
    102 H                     0.219727
    103 H                     0.229372
    104 H                     0.218768
    105 H                     0.223994
    106 H                     0.220921
    107 H                     0.229777
    108 H                     0.223731
    109 H                     0.226086
    110 H                     0.238397
    111 H                     0.236709
    112 H                     0.251664
    113 C                    -0.642074
    114 H                     0.241599
    115 H                     0.246771
    116 H                     0.248173
    117 H                     0.252945
    118 H                     0.231639
    119 H                     0.218682
    120 H                     0.216487
    121 H                     0.252885
    122 H                     0.231899
    123 H                     0.218626
    124 H                     0.216363
    125 H                     0.220589
    126 H                     0.223329
    127 H                     0.234322
    128 H                     0.222941
    129 H                     0.219695
    130 H                     0.243943
    131 S                     0.144266
    132 S                     0.180290
  ----------------------------------------
  Sum of atomic charges =    -0.000000

                    Cartesian Multipole Moments
 -----------------------------------------------------------------
    Charge (ESU x 10^10)
                -0.0000
    Dipole Moment (Debye)
         X      -0.0786      Y      -0.0103      Z      -0.9922
       Tot       0.9954
    Quadrupole Moments (Debye-Ang)
        XX    -481.7042     XY     -34.4697     YY    -412.3210
        XZ       1.6423     YZ     -28.9378     ZZ    -495.9737

 Total job time:  96555.32s(wall), 559158.49s(cpu)
        *  Thank you very much for using Q-Chem.  Have a nice day.  *
