 Q-Chem 5.0, Q-Chem, Inc., Pleasanton, CA (2017)
 Q-Chem 5.0.1 for Intel X86 EM64T Linux

User input:
--------------------------------------------------------------
$rem
threads 8
jobtype	sp
method PBEh-3c
basis def2-mSVP
mem_static	1024
mem_total	10000
sym_ignore	true
cis_n_roots             6
cis_singlets            true
cis_triplets		true
rpa                     false
calc_soc 		true
cis_moments             true
cis_relaxed_density	true
$end

$molecule
read t1opt.mol
$end

--------------------------------------------------------------

             Standard Nuclear Orientation (Angstroms)
    I     Atom           X                Y                Z
 ----------------------------------------------------------------
    1      S       0.0000000000     0.0000000000     0.0000000000
    2      C       0.0000000000     0.0000000000     1.7570480000
    3      C       1.2094629459     0.0000000000     2.4326830113
    4      H       2.1256995742     0.1223326916     1.8686597225
    5      C       1.2500149236    -0.1853380158     3.8054487596
    6      H       2.1984846351    -0.2065149199     4.3246654937
    7      C       0.0599564229    -0.3525579092     4.4910227102
    8      H       0.0656716442    -0.5107389477     5.5614876382
    9      C      -1.1564224173    -0.3068094573     3.8270319149
   10      H      -2.0674319717    -0.4327528729     4.3933579085
   11      C      -1.2118281687    -0.1206975703     2.4457334053
   12      N      -2.4281056917    -0.0643986564     1.7532200347
   13      C      -2.5710389661     0.7147825533     0.5965852707
   14      C      -3.7812173947     1.3202397057     0.2598607556
   15      H      -4.6492465885     1.1776694594     0.8867378679
   16      C      -3.8920222113     2.0979299451    -0.8826691270
   17      H      -4.8478753781     2.5463157099    -1.1194025924
   18      C      -2.7985636398     2.3150673531    -1.7025904438
   19      H      -2.8807712765     2.9335694907    -2.5858961382
   20      C      -1.5899212804     1.7200621698    -1.3783936255
   21      H      -0.7197845175     1.8680889247    -2.0057214543
   22      C      -1.4829234355     0.9070684090    -0.2619871875
   23      C      -3.6143541400    -0.4502369580     2.4463131188
   24      C      -4.1444149522    -1.7042804253     2.2257768213
   25      H      -3.6394369867    -2.3735190865     1.5376744490
   26      C      -4.2478379661     0.4208601532     3.3226966168
   27      H      -3.8253251343     1.4061333486     3.4902326745
   28      C      -5.4158478688     0.0421570343     3.9686317711
   29      C      -5.3184305961    -2.0999959701     2.8639389339
   30      C      -5.9735399062    -1.2275307209     3.7388610888
   31      C      -6.0874800754     1.0017137270     4.9097707132
   32      H      -5.5611395695     1.9553655893     4.9510403051
   33      H      -6.1293376802     0.5970203938     5.9227479772
   34      H      -7.1173435512     1.1999121050     4.6066946284
   35      C      -5.8299634333    -3.4939990183     2.6102269229
   36      H      -6.8967999271    -3.5508771479     2.8362261926
   37      H      -5.7309420884    -3.7298464508     1.5468378184
   38      C      -5.0786282596    -4.5391773178     3.4311140700
   39      H      -5.2034884872    -4.3607020023     4.4989129136
   40      H      -5.4450946771    -5.5438435262     3.2164225168
   41      H      -4.0099201620    -4.5200497498     3.2125020157
   42      B      -7.3363916574    -1.6230976733     4.4431925656
   43      C      -7.3427739462    -2.2565316762     5.8378987702
   44      C      -6.1322556622    -2.5353813794     6.4934499500
   45      H      -5.1951382646    -2.2851998817     6.0052888267
   46      C      -6.1236876767    -3.1230629512     7.7352732854
   47      C      -7.3520128757    -3.4515868581     8.3804889473
   48      C      -8.5454778529    -3.1804728196     7.7562239692
   49      H      -9.4756721570    -3.4355697075     8.2532889465
   50      C      -8.5792474574    -2.5791007437     6.4816456417
   51      C      -5.0269615114    -3.5252621651     8.6062430439
   52      C      -3.6550430824    -3.4782094807     8.5380267942
   53      H      -3.1396212684    -3.0637237013     7.6803290992
   54      C      -5.6226103755    -4.0830518723     9.7559598727
   55      C      -4.9067311863    -4.5910769863    10.8374857254
   56      C      -7.0299349750    -4.0587706796     9.6696471452
   57      C      -7.7480819942    -4.5630781875    10.7263103803
   58      H      -8.8311487400    -4.5651831921    10.7256380965
   59      C      -2.9056613492    -3.9891990254     9.6206037935
   60      H      -1.8249655183    -3.9518736336     9.5631963647
   61      C      -3.4950445912    -4.5304097899    10.7402628869
   62      H      -2.8781747360    -4.9097748004    11.5458168407
   63      C      -7.0500087086    -5.0831769492    11.8385444951
   64      H      -7.6193005170    -5.4785745481    12.6704681978
   65      C      -5.6756821628    -5.1058620521    11.9076729738
   66      H      -5.1828888329    -5.5154559041    12.7810688402
   67      B      -9.9041523830    -2.2682026861     5.7781315649
   68      C      -9.9163824123    -1.6581316327     4.3748659616
   69      C     -11.1200706208    -1.4000697235     3.6857312330
   70      H     -12.0668329009    -1.6261271327     4.1670932126
   71      C     -11.1114534824    -0.8696542686     2.4161984377
   72      C      -9.8677862029    -0.5687909231     1.7894044291
   73      C      -8.6834353138    -0.8046780007     2.4442150098
   74      H      -7.7397115723    -0.5747145438     1.9597837779
   75      C      -8.6732634255    -1.3517236808     3.7362155634
   76      C     -10.1361475430    -0.0362833476     0.4636229794
   77      C      -9.3607261548     0.4040927789    -0.5806965856
   78      H      -8.2788110996     0.4093189707    -0.5258098280
   79      C     -11.5378800576    -0.0235626356     0.3198980259
   80      C     -12.1973582696     0.4120842657    -0.8251551343
   81      C     -12.1763381132    -0.5201971739     1.4760981978
   82      C     -13.5475182871    -0.5787623455     1.4774769599
   83      H     -14.0991076113    -0.9543315011     2.3303073205
   84      C     -10.0058628302     0.8541110179    -1.7532310418
   85      H      -9.3959071512     1.2009561736    -2.5778548356
   86      C     -11.3757701393     0.8651098862    -1.8867640875
   87      H     -11.8247969163     1.2180534618    -2.8069807774
   88      C     -14.2471655602    -0.1396613561     0.3306269913
   89      H     -15.3287293655    -0.1877428726     0.3359278342
   90      C     -13.6102681027     0.3422130796    -0.7904270876
   91      H     -14.1906523766     0.6648647378    -1.6460550977
   92      C     -11.2581207562    -2.6336999028     6.5340273584
   93      C     -11.7848728577    -1.7963338704     7.5278020343
   94      C     -12.9101508065    -2.1882272623     8.2486087748
   95      H     -13.3038853240    -1.5543924038     9.0352214561
   96      C     -13.5007022022    -3.4033999432     7.9688552459
   97      C     -13.0155832788    -4.2395731934     6.9830696307
   98      H     -13.4914107309    -5.1947634354     6.7925518369
   99      C     -11.8893566400    -3.8574054576     6.2620712030
  100      N     -14.6194164001    -3.8426488110     8.7666690015
  101      C     -15.8749905872    -3.4523065365     8.3737439104
  102      C     -14.3325249987    -4.6254566686     9.8586368279
  103      C     -16.0333603163    -2.6675947038     7.2158526520
  104      H     -15.1652157149    -2.3851124233     6.6410326934
  105      C     -17.2787805636    -2.2589833290     6.8155653551
  106      H     -17.3698722345    -1.6564575220     5.9233671071
  107      C     -18.4227216095    -2.6091461710     7.5410302105
  108      H     -19.3986072944    -2.2793453117     7.2164472096
  109      C     -18.2971455984    -3.3795645557     8.6692285341
  110      H     -19.1723102464    -3.6632045028     9.2393559828
  111      C     -17.0357575674    -3.8062460605     9.0918992189
  112      C     -12.9951071912    -4.9613013203    10.1497746192
  113      H     -12.1997776641    -4.5992478212     9.5181119408
  114      C     -12.6909226682    -5.7498997743    11.2284240004
  115      H     -11.6559658511    -5.9925142149    11.4226029475
  116      C     -13.6932972708    -6.2402692020    12.0723198816
  117      H     -13.4403674907    -6.8622045351    12.9185112814
  118      C     -15.0030078509    -5.9217433487    11.8179794807
  119      H     -15.7903934759    -6.2881770767    12.4638706801
  120      C     -15.3316963465    -5.1195088416    10.7219881174
  121      C     -11.3276631882    -4.7768497551     5.2164395137
  122      H     -11.8811267180    -5.7139974635     5.1596126438
  123      H     -11.3456297442    -4.3113106233     4.2306389564
  124      H     -10.2832410965    -5.0101768357     5.4282579523
  125      C     -11.1450810659    -0.4685721659     7.8358197475
  126      H     -10.0595473800    -0.5725968818     7.7999595108
  127      H     -11.3923761971    -0.1716872904     8.8586362993
  128      C     -11.5801067531     0.6298121907     6.8679496203
  129      H     -11.2831520553     0.3961940254     5.8466619008
  130      H     -11.1187885034     1.5804682498     7.1356975515
  131      H     -12.6623485338     0.7681220307     6.8822762140
  132      S     -17.0007682029    -4.7721387002    10.5130082680
 ----------------------------------------------------------------

   16   -3799.4164958236      5.21E-09 Convergence criterion met
 Total energy in the final basis set = -3799.41649582

         TDDFT/TDA Excitation Energies
 ---------------------------------------------------

 Excited state   1: excitation energy (eV) =    1.8373
 Total energy for state  1:                 -3799.34897765 au
    Multiplicity: Triplet
    Trans. Mom.:  0.0000 X   0.0000 Y   0.0000 Z
    Strength   :     0.0000000000
    D(276) --> V(  1) amplitude =  0.9985

 Excited state   2: excitation energy (eV) =    1.8376
 Total energy for state  2:                 -3799.34896680 au
    Multiplicity: Singlet
    Trans. Mom.:  0.0453 X   0.0154 Y  -0.0296 Z
    Strength   :     0.0001423896
    D(276) --> V(  1) amplitude =  0.9985

 Excited state   3: excitation energy (eV) =    2.1643
 Total energy for state  3:                 -3799.33695950 au
    Multiplicity: Triplet
    Trans. Mom.:  0.0000 X   0.0000 Y   0.0000 Z
    Strength   :     0.0000000000
    D(272) --> V(  1) amplitude =  0.7837
    D(274) --> V(  1) amplitude =  0.4628

 Excited state   4: excitation energy (eV) =    2.3983
 Total energy for state  4:                 -3799.32836085 au
    Multiplicity: Triplet
    Trans. Mom.:  0.0000 X   0.0000 Y   0.0000 Z
    Strength   :     0.0000000000
    D(270) --> V(  2) amplitude = -0.4647
    D(272) --> V(  1) amplitude = -0.4395
    D(273) --> V(  1) amplitude = -0.2286
    D(274) --> V(  1) amplitude =  0.6469

 Excited state   5: excitation energy (eV) =    2.4632
 Total energy for state  5:                 -3799.32597443 au
    Multiplicity: Triplet
    Trans. Mom.:  0.0000 X   0.0000 Y   0.0000 Z
    Strength   :     0.0000000000
    D(270) --> V(  1) amplitude =  0.7461
    D(270) --> V(  4) amplitude =  0.2356
    D(272) --> V(  2) amplitude =  0.2273
    D(274) --> V(  2) amplitude = -0.4641

 Excited state   6: excitation energy (eV) =    2.4970
 Total energy for state  6:                 -3799.32473217 au
    Multiplicity: Triplet
    Trans. Mom.:  0.0000 X   0.0000 Y   0.0000 Z
    Strength   :     0.0000000000
    D(275) --> V(  1) amplitude =  0.9967

 Excited state   7: excitation energy (eV) =    2.4972
 Total energy for state  7:                 -3799.32472450 au
    Multiplicity: Singlet
    Trans. Mom.: -0.0074 X   0.0007 Y   0.0014 Z
    Strength   :     0.0000034667
    D(275) --> V(  1) amplitude =  0.9982

 Excited state   8: excitation energy (eV) =    2.6185
 Total energy for state  8:                 -3799.32026626 au
    Multiplicity: Triplet
    Trans. Mom.:  0.0000 X   0.0000 Y   0.0000 Z
    Strength   :     0.0000000000
    D(276) --> V(  6) amplitude =  0.8871
    D(276) --> V( 12) amplitude = -0.2636

 Excited state   9: excitation energy (eV) =    2.8265
 Total energy for state  9:                 -3799.31262333 au
    Multiplicity: Singlet
    Trans. Mom.:  0.0959 X  -0.0572 Y   0.1452 Z
    Strength   :     0.0023229053
    D(272) --> V(  1) amplitude =  0.8377
    D(274) --> V(  1) amplitude =  0.4594

 Excited state  10: excitation energy (eV) =    2.9288
 Total energy for state 10:                 -3799.30886306 au
    Multiplicity: Singlet
    Trans. Mom.: -0.0057 X  -0.0026 Y   0.0060 Z
    Strength   :     0.0000053363
    D(276) --> V(  2) amplitude =  0.9983

 Excited state  11: excitation energy (eV) =    3.1575
 Total energy for state 11:                 -3799.30045897 au
    Multiplicity: Singlet
    Trans. Mom.:  1.6796 X  -1.1683 Y   2.7539 Z
    Strength   :     0.9104783652
    D(272) --> V(  1) amplitude = -0.4773
    D(273) --> V(  1) amplitude = -0.2730
    D(274) --> V(  1) amplitude =  0.7785

 Excited state  12: excitation energy (eV) =    3.3393
 Total energy for state 12:                 -3799.29377795 au
    Multiplicity: Singlet
    Trans. Mom.: -0.0397 X   0.0457 Y  -0.0256 Z
    Strength   :     0.0003527507
    D(276) --> V(  6) amplitude =  0.9360

 ---------------------------------------------------

                    Orbital Energies (a.u.)
 --------------------------------------------------------------

 Alpha MOs
 -- Occupied --
-89.592 -89.591 -14.682 -14.682 -10.502 -10.502 -10.501 -10.500
-10.490 -10.489 -10.480 -10.479 -10.478 -10.478 -10.473 -10.473
-10.473 -10.473 -10.473 -10.472 -10.472 -10.472 -10.472 -10.471
-10.470 -10.470 -10.470 -10.470 -10.470 -10.469 -10.469 -10.468
-10.467 -10.466 -10.466 -10.466 -10.465 -10.465 -10.465 -10.464
-10.463 -10.462 -10.462 -10.461 -10.455 -10.455 -10.452 -10.452
-10.450 -10.450 -10.450 -10.449 -10.449 -10.449 -10.448 -10.448
-10.447 -10.446 -10.445 -10.445 -10.445 -10.444 -10.444 -10.444
-10.444 -10.444 -10.444 -10.443 -10.443 -10.443 -10.440 -10.439
-10.438 -10.438 -10.437 -10.436 -10.428 -10.427  -8.232  -8.232
 -6.957  -6.956  -6.124  -6.123  -6.120  -6.120  -6.115  -6.114
 -1.098  -1.090  -1.023  -1.023  -0.978  -0.977  -0.969  -0.967
 -0.967  -0.965  -0.955  -0.953  -0.941  -0.941  -0.917  -0.907
 -0.904  -0.900  -0.893  -0.893  -0.871  -0.864  -0.864  -0.860
 -0.859  -0.857  -0.854  -0.854  -0.843  -0.843  -0.832  -0.824
 -0.822  -0.821  -0.820  -0.812  -0.812  -0.811  -0.778  -0.777
 -0.765  -0.761  -0.744  -0.740  -0.735  -0.728  -0.724  -0.722
 -0.720  -0.717  -0.715  -0.710  -0.697  -0.688  -0.687  -0.680
 -0.677  -0.675  -0.661  -0.655  -0.653  -0.653  -0.648  -0.646
 -0.634  -0.629  -0.622  -0.617  -0.605  -0.603  -0.600  -0.597
 -0.592  -0.591  -0.591  -0.584  -0.584  -0.565  -0.564  -0.561
 -0.555  -0.552  -0.546  -0.545  -0.539  -0.537  -0.536  -0.533
 -0.529  -0.528  -0.525  -0.521  -0.517  -0.516  -0.512  -0.509
 -0.505  -0.502  -0.501  -0.500  -0.499  -0.498  -0.498  -0.497
 -0.497  -0.492  -0.491  -0.491  -0.488  -0.487  -0.484  -0.483
 -0.481  -0.479  -0.479  -0.478  -0.477  -0.475  -0.475  -0.472
 -0.466  -0.463  -0.457  -0.453  -0.449  -0.449  -0.447  -0.445
 -0.441  -0.440  -0.438  -0.434  -0.432  -0.430  -0.430  -0.430
 -0.427  -0.427  -0.423  -0.418  -0.417  -0.417  -0.406  -0.405
 -0.404  -0.403  -0.402  -0.402  -0.401  -0.401  -0.399  -0.398
 -0.393  -0.392  -0.391  -0.389  -0.387  -0.381  -0.380  -0.376
 -0.373  -0.370  -0.366  -0.361  -0.360  -0.357  -0.347  -0.344
 -0.329  -0.323  -0.307  -0.304  -0.303  -0.302  -0.300  -0.297
 -0.290  -0.287  -0.286  -0.285  -0.285  -0.269  -0.266  -0.264
 -0.262  -0.262  -0.222  -0.197

          Ground-State Mulliken Net Atomic Charges

     Atom                 Charge (a.u.)
  ----------------------------------------
      1 S                     0.144460
      2 C                    -0.192664
      3 C                    -0.246484
      4 H                     0.231643
      5 C                    -0.232453
      6 H                     0.218669
      7 C                    -0.221511
      8 H                     0.216475
      9 C                    -0.298904
     10 H                     0.252794
     11 C                     0.425906
     12 N                    -0.710665
     13 C                     0.423792
     14 C                    -0.296208
     15 H                     0.252878
     16 C                    -0.223359
     17 H                     0.216382
     18 C                    -0.231927
     19 H                     0.218632
     20 C                    -0.246383
     21 H                     0.231901
     22 C                    -0.191210
     23 C                     0.217300
     24 C                    -0.298491
     25 H                     0.226063
     26 C                    -0.324564
     27 H                     0.238453
     28 C                     0.040593
     29 C                     0.060253
     30 C                    -0.216387
     31 C                    -0.759845
     32 H                     0.241579
     33 H                     0.246742
     34 H                     0.248136
     35 C                    -0.548016
     36 H                     0.251624
     37 H                     0.236724
     38 C                    -0.642098
     39 H                     0.234375
     40 H                     0.223331
     41 H                     0.220565
     42 B                     0.679524
     43 C                    -0.145083
     44 C                    -0.397023
     45 H                     0.231630
     46 C                     0.095966
     47 C                     0.114508
     48 C                    -0.385264
     49 H                     0.228610
     50 C                    -0.147741
     51 C                     0.198240
     52 C                    -0.377100
     53 H                     0.219671
     54 C                    -0.067672
     55 C                     0.252078
     56 C                     0.200018
     57 C                    -0.381681
     58 H                     0.219351
     59 C                    -0.204455
     60 H                     0.229483
     61 C                    -0.330399
     62 H                     0.224005
     63 C                    -0.202602
     64 H                     0.229289
     65 C                    -0.333584
     66 H                     0.224143
     67 B                     0.667260
     68 C                    -0.142193
     69 C                    -0.402867
     70 H                     0.229951
     71 C                     0.115380
     72 C                     0.094907
     73 C                    -0.381624
     74 H                     0.228132
     75 C                    -0.156030
     76 C                     0.195227
     77 C                    -0.373312
     78 H                     0.220931
     79 C                    -0.066094
     80 C                     0.253195
     81 C                     0.199319
     82 C                    -0.382905
     83 H                     0.218711
     84 C                    -0.206073
     85 H                     0.229771
     86 C                    -0.329977
     87 H                     0.223739
     88 C                    -0.202301
     89 H                     0.229325
     90 C                    -0.335133
     91 H                     0.223981
     92 C                    -0.204952
     93 C                     0.059367
     94 C                    -0.282404
     95 H                     0.230452
     96 C                     0.145733
     97 C                    -0.281971
     98 H                     0.232845
     99 C                     0.030432
    100 N                    -0.715666
    101 C                     0.445059
    102 C                     0.440247
    103 C                    -0.305535
    104 H                     0.255999
    105 C                    -0.222933
    106 H                     0.213534
    107 C                    -0.236486
    108 H                     0.216494
    109 C                    -0.239397
    110 H                     0.228631
    111 C                    -0.211078
    112 C                    -0.301700
    113 H                     0.256400
    114 C                    -0.222246
    115 H                     0.209244
    116 C                    -0.236014
    117 H                     0.216085
    118 C                    -0.239673
    119 H                     0.228831
    120 C                    -0.209158
    121 C                    -0.760181
    122 H                     0.242226
    123 H                     0.249052
    124 H                     0.248450
    125 C                    -0.548324
    126 H                     0.252973
    127 H                     0.234788
    128 C                    -0.649290
    129 H                     0.243958
    130 H                     0.222909
    131 H                     0.219671
    132 S                     0.180296
  ----------------------------------------
  Sum of atomic charges =    -0.000000

                    Cartesian Multipole Moments
 -----------------------------------------------------------------
    Charge (ESU x 10^10)
                -0.0000
    Dipole Moment (Debye)
         X       0.5422      Y       0.7213      Z      -0.4178
       Tot       0.9944
    Quadrupole Moments (Debye-Ang)
        XX    -487.4159     XY     -29.6208     YY    -477.1026
        XZ      59.3003     YZ     -17.1762     ZZ    -443.5312

 Total job time:  21568.99s(wall), 72395.23s(cpu)
        *  Thank you very much for using Q-Chem.  Have a nice day.  *
