 Q-Chem 5.0, Q-Chem, Inc., Pleasanton, CA (2017)
 Q-Chem 5.0.1 for Intel X86 EM64T Linux

User input:
--------------------------------------------------------------
$rem
threads 8
jobtype	opt
method PBEh-3c
basis def2-mSVP
mem_static	1024
mem_total	10000
sym_ignore	true
cis_n_roots             3
cis_singlets            false
cis_triplets		true
rpa                     false
cis_state_deriv         2
state_follow		true
$end

$molecule
read incoords.mol
$end

--------------------------------------------------------------

   15   -3799.3595441408      7.95E-09 Convergence criterion met
 Total energy in the final basis set = -3799.35954414
   12   -3799.3960746254      8.10E-09 Convergence criterion met
 Total energy in the final basis set = -3799.39607463
   12   -3799.4063019185      8.37E-09 Convergence criterion met
 Total energy in the final basis set = -3799.40630192
   12   -3799.4088969177      8.64E-09 Convergence criterion met
 Total energy in the final basis set = -3799.40889692
   12   -3799.4086793356      8.09E-09 Convergence criterion met
 Total energy in the final basis set = -3799.40867934
   12   -3799.4092506409      8.07E-09 Convergence criterion met
 Total energy in the final basis set = -3799.40925064
   12   -3799.4109395898      6.47E-09 Convergence criterion met
 Total energy in the final basis set = -3799.41093959
   12   -3799.4122130163      6.69E-09 Convergence criterion met
   11   -3799.4164222330      5.18E-09 Convergence criterion met
 Total energy in the final basis set = -3799.41642223
   10   -3799.4163759591      5.20E-09 Convergence criterion met
 Total energy in the final basis set = -3799.41637596
    9   -3799.4163403193      8.22E-09 Convergence criterion met
 Total energy in the final basis set = -3799.41634032
    9   -3799.4163383854      7.39E-09 Convergence criterion met
 Total energy in the final basis set = -3799.41633839
    8   -3799.4163418176      8.73E-09 Convergence criterion met
 Total energy in the final basis set = -3799.41634182
    8   -3799.4163369155      6.81E-09 Convergence criterion met
 Total energy in the final basis set = -3799.41633692

             Standard Nuclear Orientation (Angstroms)
    I     Atom           X                Y                Z
 ----------------------------------------------------------------
    1      C      -4.8710759044    -0.1499233533     4.4247887088
    2      C      -5.5284116005    -0.6394305176     3.3020318675
    3      C      -4.8197770928    -0.8351955723     2.1086515068
    4      C      -3.4548188097    -0.5308256335     2.0494166605
    5      C      -2.8057887186    -0.0414178475     3.1794787110
    6      C      -3.5219086195     0.1354268111     4.3458745145
    7      N      -2.8328563847     0.5741012844     5.5337093969
    8      C      -6.9847220795    -0.9968621918     3.3754577984
    9      C      -2.6751111421    -0.7337396077     0.7774285891
   10      C      -2.3354896771    -0.4061524645     6.3591845488
   11      C      -1.6444369208    -0.1136072896     7.5524882351
   12      C      -3.2924951019     2.8270756688     4.8246942824
   13      C      -2.7307318845     1.9261214246     5.7483747778
   14      C      -3.1921670800     4.1799837569     5.0208136262
   15      C      -2.5332291698     4.7019149413     6.1394105010
   16      C      -1.9804179244     3.8455704359     7.0573810798
   17      C      -2.0726542893     2.4634550637     6.8739280108
   18      C      -2.5085845064    -1.7628643564     6.0218539881
   19      C      -2.0222555886    -2.7535365785     6.8347224148
   20      C      -1.3414198027    -2.4492620657     8.0184990643
   21      C      -1.1552815833    -1.1365225157     8.3696881501
   22      C      -7.0075171380    -1.2800782861    -1.2205825714
   23      C      -6.3884062610    -0.6409081363    -0.1045416968
   24      B      -5.5586139279    -1.4976735998     0.8715141318
   25      C      -5.4335908335    -3.0306204588     0.7036677383
   26      C      -6.0282288096    -3.6534926535    -0.4326423702
   27      B      -6.8282855193    -2.8029609913    -1.4478435334
   28      C      -4.7444569001    -3.8104984964     1.6310035683
   29      C      -4.6297742017    -5.1842162515     1.4616534586
   30      C      -5.2181972610    -5.7991701701     0.3184750660
   31      C      -5.9011581844    -5.0263816200    -0.6109268895
   32      C      -7.7766425985    -0.5295404866    -2.1005160030
   33      C      -7.9549040438     0.8323692298    -1.8994949222
   34      C      -7.3393908601     1.4809921503    -0.7888892968
   35      C      -6.5624944384     0.7308033309     0.0861842998
   36      C      -3.2687523162    -6.2694336360     3.4292532106
   37      C      -2.8015046533    -7.5119026976     3.8802559301
   38      C      -3.0343493784    -8.6934895492     3.1945114765
   39      C      -3.7683854957    -8.6789059731     1.9861421832
   40      C      -4.2201723643    -7.4275611879     1.5585031468
   41      C      -3.9934086191    -6.2192148965     2.2480772288
   42      C      -4.0980813736    -9.7769889515     1.1581559420
   43      C      -4.8282718835    -9.5811308108    -0.0036514381
   44      C      -5.2690227809    -8.3154013727    -0.4137288922
   45      C      -4.9606236224    -7.2198221875     0.3790642968
   46      C      -8.0229065618     5.2255266122    -0.4455910194
   47      C      -7.4521984012     4.0029740858    -0.0612410870
   48      C      -7.7065473533     2.8813888299    -0.8339891496
   49      C      -8.5313338714     3.0319950252    -1.9681541984
   50      C      -9.1152697550     4.2338234241    -2.3717710646
   51      C      -8.8319708048     5.3585737851    -1.5628598480
   52      C      -8.7086007349     1.8092011669    -2.6432380055
   53      C      -9.5062372010     1.7776887190    -3.7763256296
   54      C     -10.1005613136     2.9732837983    -4.2015466283
   55      C      -9.9211826763     4.1743323380    -3.5330191464
   56      C      -9.3074251771    -4.5350015847    -3.8624201069
   57      C      -8.7574343567    -3.9889946431    -2.7045751319
   58      C      -7.4582951223    -3.4779556372    -2.7249526169
   59      C      -6.7134983775    -3.5417740762    -3.9133198065
   60      C      -7.2778563437    -4.0896944507    -5.0549007134
   61      C      -8.5777215412    -4.5799807694    -5.0319947569
   62      N      -9.1812233856    -5.1163716666    -6.2070359359
   63      C      -9.5840062398    -3.9972613149    -1.4446595725
   64      C      -5.3088950441    -3.0102582471    -3.9495322337
   65      C      -9.7256024289    -4.2125771595    -7.1318430409
   66      C      -9.4738251472    -2.8430705599    -7.0626583570
   67      C      -9.5929722590    -7.0881603148    -7.5628839558
   68      C      -8.8506468631    -6.4267440398    -6.5789444751
   69      C      -9.2499118058    -8.3640706769    -7.9795273370
   70      C      -8.1987937122    -9.0416610207    -7.3825169361
   71      C      -7.4866940498    -8.4144993698    -6.3757808868
   72      C      -7.7952543688    -7.1196990282    -5.9867847090
   73      C     -10.5495535887    -4.6750893585    -8.1636158124
   74      C     -11.0505364535    -3.8067727380    -9.1195071431
   75      C     -10.7940970611    -2.4474854327    -9.0388929506
   76      C     -10.0145620754    -1.9740783231    -7.9982575056
   77      H      -5.4053282013    -0.0159693429     5.3581869084
   78      H      -1.7439543560     0.1751641343     3.1489940965
   79      H      -7.1390885426    -2.0434256024     3.1062895004
   80      H      -7.5731315396    -0.4015751443     2.6762852340
   81      H      -7.3923491588    -0.8449347667     4.3741484859
   82      H      -3.0212256122    -1.6430075260     0.2812828268
   83      H      -1.6230033054    -0.9060257626     1.0183570669
   84      C      -2.7903662313     0.4492695227    -0.1819466158
   85      H      -3.8049821310     2.4497687413     3.9535168432
   86      H      -3.6322165668     4.8475607177     4.2942409447
   87      H      -2.4601519952     5.7699213244     6.2821454312
   88      H      -1.4690414062     4.2324493020     7.9292791926
   89      H      -3.0290214482    -2.0309994082     5.1164192775
   90      H      -2.1720347554    -3.7845080306     6.5482627595
   91      H      -0.9640970216    -3.2394459030     8.6508701608
   92      H      -0.6283831061    -0.8834341133     9.2805779426
   93      H      -4.2904203777    -3.3445540941     2.4989645066
   94      H      -6.3445459740    -5.4979017896    -1.4823467771
   95      H      -8.2482038146    -1.0160097031    -2.9483141493
   96      H      -6.0879670898     1.2195347132     0.9316092077
   97      H      -3.0575900370    -5.3751532727     4.0027169593
   98      H      -2.2347655338    -7.5526375376     4.8021592668
   99      H      -2.6524161154    -9.6289419136     3.5845974112
  100      H      -3.7808323145   -10.7761411756     1.4308431255
  101      H      -5.0686323474   -10.4387892987    -0.6195171530
  102      H      -5.8370569899    -8.2159842808    -1.3306400009
  103      H      -7.8248799215     6.1021876834     0.1582483253
  104      H      -6.8320385341     3.9536042025     0.8250838299
  105      H      -9.2498181885     6.3256810427    -1.8135595501
  106      H      -9.6796998951     0.8611775557    -4.3273090429
  107      H     -10.7261238983     2.9567957817    -5.0852036338
  108      H     -10.4050361711     5.0702118736    -3.9020413774
  109      H     -10.3207997865    -4.9211242657    -3.8614927352
  110      H      -6.7114397786    -4.1300701243    -5.9792853339
  111      H     -10.5901576406    -3.6314919638    -1.6680116876
  112      H      -9.1716958460    -3.2982019576    -0.7126231309
  113      C      -9.6766054055    -5.3889443570    -0.8239137581
  114      H      -4.8699076899    -3.1029221077    -4.9425271845
  115      H      -4.6655352572    -3.5480865828    -3.2499457724
  116      H      -5.2759323361    -1.9547477090    -3.6706662263
  117      H      -8.8603926083    -2.4440311819    -6.2681628577
  118      H      -9.8314747361    -8.8346259931    -8.7624129970
  119      H      -7.9498933871   -10.0462009945    -7.6963925585
  120      H      -6.6694743303    -8.9271104052    -5.8856571341
  121      H      -7.2135334989    -6.6571898136    -5.2029935212
  122      H     -11.6626689136    -4.2031287784    -9.9199562025
  123      H     -11.2039455952    -1.7719297739    -9.7772194295
  124      H      -9.8073185333    -0.9158038656    -7.9103351117
  125      H     -10.1174761758    -6.1037528937    -1.5200185767
  126      H     -10.2943491500    -5.3757735141     0.0745209288
  127      H      -8.6911430021    -5.7615619260    -0.5450493472
  128      H      -2.1950893222     0.2734317176    -1.0777787795
  129      H      -2.4342664432     1.3716268979     0.2790440913
  130      H      -3.8205824567     0.6073389563    -0.4972394028
  131      S     -11.0682444846    -6.3546532300    -8.1734166053
  132      S      -1.3447596213     1.4902168733     8.0886315935
 ----------------------------------------------------------------

    8   -3799.4163342599      6.81E-09 Convergence criterion met
 Total energy in the final basis set = -3799.41633426

         TDDFT/TDA Excitation Energies
 ---------------------------------------------------

 Excited state   1: excitation energy (eV) =    1.9165
 Total energy for state  1:                 -3799.34590570 au
    Multiplicity: Triplet
    Trans. Mom.:  0.0000 X   0.0000 Y   0.0000 Z
    Strength   :     0.0000000000
    D(276) --> V(  1) amplitude =  0.9985

 Excited state   2: excitation energy (eV) =    2.5813
 Total energy for state  2:                 -3799.32147420 au
    Multiplicity: Triplet
    Trans. Mom.:  0.0000 X   0.0000 Y   0.0000 Z
    Strength   :     0.0000000000
    D(275) --> V(  1) amplitude =  0.9980

 Excited state   3: excitation energy (eV) =    2.8180
 Total energy for state  3:                 -3799.31277523 au
    Multiplicity: Triplet
    Trans. Mom.:  0.0000 X   0.0000 Y   0.0000 Z
    Strength   :     0.0000000000
    D(276) --> V(  2) amplitude =  0.9987

 ---------------------------------------------------

 Final energy is   -3799.31277523236
 **  OPTIMIZATION CONVERGED  **

                    Orbital Energies (a.u.)
 --------------------------------------------------------------

 Alpha MOs
 -- Occupied --
-89.592 -89.591 -14.681 -14.681 -10.502 -10.501 -10.501 -10.500
-10.490 -10.489 -10.480 -10.479 -10.478 -10.478 -10.475 -10.474
-10.474 -10.474 -10.473 -10.472 -10.472 -10.472 -10.471 -10.471
-10.471 -10.471 -10.471 -10.470 -10.470 -10.469 -10.468 -10.467
-10.467 -10.467 -10.467 -10.467 -10.465 -10.464 -10.464 -10.463
-10.462 -10.461 -10.461 -10.461 -10.454 -10.454 -10.452 -10.451
-10.450 -10.450 -10.449 -10.449 -10.449 -10.449 -10.448 -10.448
-10.447 -10.446 -10.445 -10.444 -10.444 -10.444 -10.444 -10.443
-10.443 -10.443 -10.442 -10.442 -10.442 -10.441 -10.440 -10.439
-10.437 -10.436 -10.436 -10.436 -10.428 -10.427  -8.232  -8.232
 -6.957  -6.957  -6.124  -6.123  -6.120  -6.120  -6.115  -6.114
 -1.098  -1.090  -1.023  -1.023  -0.978  -0.977  -0.968  -0.967
 -0.966  -0.965  -0.955  -0.953  -0.940  -0.940  -0.917  -0.909
 -0.903  -0.900  -0.893  -0.893  -0.870  -0.864  -0.863  -0.859
 -0.859  -0.857  -0.856  -0.856  -0.843  -0.843  -0.828  -0.824
 -0.822  -0.820  -0.818  -0.812  -0.811  -0.810  -0.778  -0.777
 -0.765  -0.761  -0.742  -0.742  -0.739  -0.727  -0.723  -0.721
 -0.720  -0.717  -0.715  -0.710  -0.696  -0.686  -0.686  -0.680
 -0.677  -0.674  -0.660  -0.654  -0.653  -0.653  -0.648  -0.646
 -0.634  -0.629  -0.622  -0.617  -0.606  -0.602  -0.601  -0.597
 -0.592  -0.591  -0.591  -0.584  -0.583  -0.564  -0.563  -0.560
 -0.555  -0.552  -0.546  -0.545  -0.539  -0.537  -0.536  -0.533
 -0.528  -0.528  -0.525  -0.521  -0.517  -0.516  -0.511  -0.509
 -0.505  -0.502  -0.501  -0.500  -0.499  -0.498  -0.498  -0.497
 -0.496  -0.492  -0.491  -0.490  -0.488  -0.486  -0.484  -0.483
 -0.481  -0.479  -0.479  -0.478  -0.477  -0.475  -0.475  -0.472
 -0.465  -0.463  -0.457  -0.455  -0.451  -0.449  -0.448  -0.445
 -0.441  -0.440  -0.438  -0.434  -0.431  -0.430  -0.430  -0.429
 -0.427  -0.427  -0.423  -0.417  -0.417  -0.416  -0.407  -0.406
 -0.404  -0.403  -0.402  -0.402  -0.401  -0.401  -0.399  -0.399
 -0.393  -0.391  -0.391  -0.387  -0.385  -0.381  -0.379  -0.375
 -0.373  -0.370  -0.364  -0.360  -0.360  -0.358  -0.346  -0.344
 -0.328  -0.322  -0.307  -0.304  -0.304  -0.303  -0.300  -0.297
 -0.288  -0.286  -0.285  -0.284  -0.284  -0.268  -0.266  -0.262
 -0.261  -0.260  -0.222  -0.197

          Ground-State Mulliken Net Atomic Charges

     Atom                 Charge (a.u.)
  ----------------------------------------
      1 C                    -0.283239
      2 C                     0.035766
      3 C                    -0.207217
      4 C                     0.062019
      5 C                    -0.285065
      6 C                     0.145476
      7 N                    -0.716106
      8 C                    -0.761397
      9 C                    -0.551348
     10 C                     0.440641
     11 C                    -0.209074
     12 C                    -0.305185
     13 C                     0.445133
     14 C                    -0.222653
     15 C                    -0.236436
     16 C                    -0.239376
     17 C                    -0.211120
     18 C                    -0.301540
     19 C                    -0.221444
     20 C                    -0.235776
     21 C                    -0.239746
     22 C                    -0.154385
     23 C                    -0.140238
     24 B                     0.674488
     25 C                    -0.145911
     26 C                    -0.147567
     27 B                     0.688972
     28 C                    -0.380587
     29 C                     0.101921
     30 C                     0.083022
     31 C                    -0.390629
     32 C                    -0.378178
     33 C                     0.081909
     34 C                     0.102875
     35 C                    -0.397943
     36 C                    -0.370467
     37 C                    -0.202029
     38 C                    -0.335768
     39 C                     0.257092
     40 C                    -0.074964
     41 C                     0.195079
     42 C                    -0.333169
     43 C                    -0.204080
     44 C                    -0.366095
     45 C                     0.192447
     46 C                    -0.201887
     47 C                    -0.371550
     48 C                     0.195115
     49 C                    -0.074060
     50 C                     0.257863
     51 C                    -0.337005
     52 C                     0.189862
     53 C                    -0.361845
     54 C                    -0.205536
     55 C                    -0.332416
     56 C                    -0.301833
     57 C                     0.065428
     58 C                    -0.217910
     59 C                     0.044412
     60 C                    -0.327354
     61 C                     0.217848
     62 N                    -0.710116
     63 C                    -0.549132
     64 C                    -0.761662
     65 C                     0.422784
     66 C                    -0.295484
     67 C                    -0.192140
     68 C                     0.425040
     69 C                    -0.246466
     70 C                    -0.232523
     71 C                    -0.221656
     72 C                    -0.299043
     73 C                    -0.190743
     74 C                    -0.246493
     75 C                    -0.231852
     76 C                    -0.223001
     77 H                     0.231888
     78 H                     0.230022
     79 H                     0.248774
     80 H                     0.249006
     81 H                     0.242425
     82 H                     0.254449
     83 H                     0.235554
     84 C                    -0.648932
     85 H                     0.255739
     86 H                     0.213201
     87 H                     0.216387
     88 H                     0.228595
     89 H                     0.256091
     90 H                     0.207948
     91 H                     0.215982
     92 H                     0.228835
     93 H                     0.227546
     94 H                     0.228499
     95 H                     0.226468
     96 H                     0.228896
     97 H                     0.220099
     98 H                     0.229134
     99 H                     0.224510
    100 H                     0.224133
    101 H                     0.230136
    102 H                     0.221206
    103 H                     0.229892
    104 H                     0.219867
    105 H                     0.224445
    106 H                     0.221662
    107 H                     0.230220
    108 H                     0.224046
    109 H                     0.225916
    110 H                     0.238098
    111 H                     0.237593
    112 H                     0.252928
    113 C                    -0.639769
    114 H                     0.242010
    115 H                     0.246507
    116 H                     0.248908
    117 H                     0.252515
    118 H                     0.231583
    119 H                     0.218667
    120 H                     0.216970
    121 H                     0.253327
    122 H                     0.231903
    123 H                     0.218564
    124 H                     0.215933
    125 H                     0.220081
    126 H                     0.223762
    127 H                     0.231640
    128 H                     0.222322
    129 H                     0.219501
    130 H                     0.244480
    131 S                     0.144588
    132 S                     0.180494
  ----------------------------------------
  Sum of atomic charges =    -0.000000

                    Cartesian Multipole Moments
 -----------------------------------------------------------------
    Charge (ESU x 10^10)
                -0.0000
    Dipole Moment (Debye)
         X      -0.2891      Y      -0.0179      Z      -0.9233
       Tot       0.9677
    Quadrupole Moments (Debye-Ang)
        XX    -479.3592     XY     -34.7745     YY    -411.2272
        XZ       1.4412     YZ     -29.3587     ZZ    -494.6059

 Total job time:  106055.51s(wall), 618430.51s(cpu)
        *  Thank you very much for using Q-Chem.  Have a nice day.  *
