 Q-Chem 5.0, Q-Chem, Inc., Pleasanton, CA (2017)
 Q-Chem 5.0.1 for Intel X86 EM64T Linux

User input:
--------------------------------------------------------------
$rem
threads 8
jobtype	opt
method PBEh-3c
basis def2-mSVP
mem_static	1024
mem_total	10000
sym_ignore	true
cis_n_roots             4
cis_singlets            false
cis_triplets		true
rpa                     false
cis_state_deriv         3
state_follow		true
$end

$molecule
read incoords.mol
$end

--------------------------------------------------------------

   15   -3799.3595441407      7.95E-09 Convergence criterion met
 Total energy in the final basis set = -3799.35954414
   12   -3799.3968081231      8.29E-09 Convergence criterion met
 Total energy in the final basis set = -3799.39680812
   12   -3799.4070229684      9.22E-09 Convergence criterion met
 Total energy in the final basis set = -3799.40702297
   12   -3799.4095329243      6.41E-09 Convergence criterion met
 Total energy in the final basis set = -3799.40953292
   12   -3799.4105926684      6.91E-09 Convergence criterion met
 Total energy in the final basis set = -3799.41059267
   12   -3799.4110192282      8.03E-09 Convergence criterion met
 Total energy in the final basis set = -3799.41101923
   12   -3799.4114355023      6.02E-09 Convergence criterion met
 Total energy in the final basis set = -3799.41143550
   12   -3799.4121377617      5.69E-09 Convergence criterion met
   11   -3799.4168870695      6.19E-09 Convergence criterion met
 Total energy in the final basis set = -3799.41688707
   10   -3799.4169341332      8.15E-09 Convergence criterion met
 Total energy in the final basis set = -3799.41693413
    9   -3799.4169473104      7.92E-09 Convergence criterion met
 Total energy in the final basis set = -3799.41694731
    9   -3799.4169374301      7.23E-09 Convergence criterion met
 Total energy in the final basis set = -3799.41693743
    8   -3799.4169189028      8.85E-09 Convergence criterion met
 Total energy in the final basis set = -3799.41691890
    9   -3799.4169238842      4.78E-09 Convergence criterion met
 Total energy in the final basis set = -3799.41692388

             Standard Nuclear Orientation (Angstroms)
    I     Atom           X                Y                Z
 ----------------------------------------------------------------
    1      C      -4.9050033380    -0.1318760010     4.4316116294
    2      C      -5.5353979267    -0.6140014680     3.2895440142
    3      C      -4.8015733713    -0.8194100908     2.1108730580
    4      C      -3.4322351429    -0.5179091523     2.0943968107
    5      C      -2.8072232580    -0.0399087573     3.2433741261
    6      C      -3.5515101243     0.1380409699     4.3914585996
    7      N      -2.8891649356     0.5602536548     5.6013888389
    8      C      -6.9977944076    -0.9512737029     3.3327785597
    9      C      -2.6161708488    -0.7087121983     0.8435063167
   10      C      -2.4581614540    -0.4303759012     6.4501264555
   11      C      -1.7951624770    -0.1549464162     7.6636296855
   12      C      -3.2580388533     2.8223717587     4.8722469978
   13      C      -2.7462677178     1.9086131544     5.8127373657
   14      C      -3.1137916412     4.1721254907     5.0616111078
   15      C      -2.4587658002     4.6784020548     6.1895647230
   16      C      -1.9571505413     3.8097290818     7.1255155518
   17      C      -2.0957847243     2.4306421934     6.9498213672
   18      C      -2.6739085043    -1.7827929010     6.1177429099
   19      C      -2.2605737463    -2.7839670645     6.9573402934
   20      C      -1.6110608934    -2.4961313049     8.1626787905
   21      C      -1.3797548022    -1.1887367953     8.5072636338
   22      C      -6.9809349673    -1.2878801512    -1.2332955693
   23      C      -6.3545136425    -0.6452992154    -0.1189847763
   24      B      -5.5169308366    -1.4815717717     0.8508188454
   25      C      -5.3744169016    -2.9941005302     0.6536524865
   26      C      -5.9955786073    -3.6233253021    -0.4712880054
   27      B      -6.8175491938    -2.7977651708    -1.4659342873
   28      C      -4.6430072993    -3.7892148790     1.5592738576
   29      C      -4.5180624359    -5.1444265683     1.3717136835
   30      C      -5.1358670753    -5.7642764425     0.2460273708
   31      C      -5.8526413850    -5.0091181192    -0.6504138326
   32      C      -7.7601209443    -0.5238903223    -2.1152740135
   33      C      -7.9308065770     0.8245130706    -1.9156920233
   34      C      -7.3110165387     1.4746574976    -0.8096696428
   35      C      -6.5378333783     0.7418873389     0.0610979937
   36      C      -3.0783822778    -6.2299440689     3.2805832481
   37      C      -2.5772861387    -7.4754750649     3.7190852605
   38      C      -2.8191746868    -8.6512137072     3.0459362993
   39      C      -3.5947909866    -8.6402127381     1.8627936674
   40      C      -4.0731515565    -7.3975442064     1.4539160589
   41      C      -3.8377684953    -6.1864542255     2.1369279607
   42      C      -3.9382512431    -9.7450090019     1.0458629374
   43      C      -4.7033464820    -9.5545322160    -0.0820485593
   44      C      -5.1740296661    -8.2826140436    -0.4762212229
   45      C      -4.8557280609    -7.1932668873     0.2990748362
   46      C      -7.9982206040     5.2348235563    -0.4891354665
   47      C      -7.4263354538     4.0016789056    -0.1022040399
   48      C      -7.6828709046     2.8883549839    -0.8625973609
   49      C      -8.5115108744     3.0386598908    -1.9947795541
   50      C      -9.0920559971     4.2366129756    -2.3993536881
   51      C      -8.8051814158     5.3659506577    -1.5964520531
   52      C      -8.6916951937     1.8116993768    -2.6639263052
   53      C      -9.4857506457     1.7800818120    -3.7838902857
   54      C     -10.0845062157     2.9832270463    -4.2168821589
   55      C      -9.9034087449     4.1787879456    -3.5593148076
   56      C      -9.3586735109    -4.5057956393    -3.8612219623
   57      C      -8.7929332461    -3.9524461029    -2.7140293223
   58      C      -7.4770895380    -3.4792257036    -2.7350690820
   59      C      -6.7399310429    -3.5879594440    -3.9270365910
   60      C      -7.3196349234    -4.1393882424    -5.0605070074
   61      C      -8.6315490753    -4.5934288247    -5.0299027697
   62      N      -9.2500331684    -5.1374760335    -6.1951887068
   63      C      -9.6245484667    -3.9158316651    -1.4584487005
   64      C      -5.3209048689    -3.0972904265    -3.9837883152
   65      C      -9.7678564829    -4.2404400169    -7.1399446263
   66      C      -9.4762652768    -2.8773943230    -7.1004587581
   67      C      -9.7200909701    -7.1267973934    -7.5073038923
   68      C      -8.9611681881    -6.4650868274    -6.5359371471
   69      C      -9.4140678867    -8.4213131627    -7.8943879342
   70      C      -8.3849549179    -9.1162815353    -7.2792328159
   71      C      -7.6575038762    -8.4877954730    -6.2842631608
   72      C      -7.9284677570    -7.1763158913    -5.9249151490
   73      C     -10.6039743185    -4.7004611324    -8.1633893837
   74      C     -11.0782822763    -3.8388072792    -9.1387402554
   75      C     -10.7820498932    -2.4862088546    -9.0874874600
   76      C      -9.9899379793    -2.0137510389    -8.0558156215
   77      H      -5.4633703830     0.0048782105     5.3506718714
   78      H      -1.7433469473     0.1692322057     3.2405627090
   79      H      -7.1627614642    -1.9910607699     3.0468551118
   80      H      -7.5640924195    -0.3438637233     2.6262846709
   81      H      -7.4205803202    -0.8000383821     4.3258418927
   82      H      -2.9262881578    -1.6286802706     0.3455479629
   83      H      -1.5641414504    -0.8421631916     1.1096730158
   84      C      -2.7507720794     0.4621984267    -0.1277885931
   85      H      -3.7663990185     2.4548330921     3.9945886175
   86      H      -3.5157760241     4.8498028401     4.3223750755
   87      H      -2.3497483271     5.7441537897     6.3264983171
   88      H      -1.4518421473     4.1847818276     8.0060918620
   89      H      -3.1721005826    -2.0374517761     5.1960705514
   90      H      -2.4442185525    -3.8108436968     6.6754892706
   91      H      -1.2915612698    -3.2945378136     8.8163357152
   92      H      -0.8737633005    -0.9484888349     9.4333766100
   93      H      -4.1716587375    -3.3256858987     2.4197461311
   94      H      -6.3206602255    -5.4839485913    -1.5074824628
   95      H      -8.2369754060    -1.0127932066    -2.9589323377
   96      H      -6.0609567433     1.2359583412     0.9023259923
   97      H      -2.8536424875    -5.3337363169     3.8457614603
   98      H      -1.9776736452    -7.5059366062     4.6202550586
   99      H      -2.4146950843    -9.5838967187     3.4200186669
  100      H      -3.5999323893   -10.7401930868     1.3076040272
  101      H      -4.9569285166   -10.4109830757    -0.6942407346
  102      H      -5.7735045086    -8.1896012948    -1.3734895676
  103      H      -7.7933988687     6.1105361269     0.1136235431
  104      H      -6.8030650316     3.9541781158     0.7820749095
  105      H      -9.2222429810     6.3325917842    -1.8508695834
  106      H      -9.6632091239     0.8627246544    -4.3321290876
  107      H     -10.7115251570     2.9599530277    -5.0993009826
  108      H     -10.3853971982     5.0755219025    -3.9288488855
  109      H     -10.3825662118    -4.8634864863    -3.8525377201
  110      H      -6.7542497402    -4.2111973526    -5.9838324565
  111      H     -10.6470266192    -3.6184798174    -1.7081212931
  112      H      -9.2440075304    -3.1526460106    -0.7763990828
  113      C      -9.6511124891    -5.2668556273    -0.7479698925
  114      H      -4.8947131112    -3.2218506680    -4.9792847488
  115      H      -4.6875623913    -3.6369560935    -3.2772696938
  116      H      -5.2560015794    -2.0396085069    -3.7212464084
  117      H      -8.8515963564    -2.4813453282    -6.3132471868
  118      H     -10.0073240850    -8.8917442942    -8.6685515060
  119      H      -8.1647681553   -10.1343747823    -7.5701706044
  120      H      -6.8566877800    -9.0131253058    -5.7806052242
  121      H      -7.3361616340    -6.7123540966    -5.1500408246
  122      H     -11.7008124529    -4.2344757810    -9.9315228543
  123      H     -11.1707907891    -1.8152593455    -9.8413098544
  124      H      -9.7509870118    -0.9604463626    -7.9910662747
  125      H     -10.0459253717    -6.0482009625    -1.3990491571
  126      H     -10.2773163756    -5.2282592267     0.1442793709
  127      H      -8.6496351780    -5.5653344242    -0.4388105308
  128      H      -2.1279453938     0.3027305339    -1.0080589939
  129      H      -2.4416002441     1.4010686264     0.3343012876
  130      H      -3.7787681569     0.5760637154    -0.4684383684
  131      S     -11.1717634462    -6.3640480730    -8.1382455588
  132      S      -1.4358817496     1.4401225586     8.1895377406
 ----------------------------------------------------------------

    9   -3799.4169152602      5.07E-09 Convergence criterion met
 Total energy in the final basis set = -3799.41691526

         TDDFT/TDA Excitation Energies
 ---------------------------------------------------

 Excited state   1: excitation energy (eV) =    1.8369
 Total energy for state  1:                 -3799.34941118 au
    Multiplicity: Triplet
    Trans. Mom.:  0.0000 X   0.0000 Y   0.0000 Z
    Strength   :     0.0000000000
    D(276) --> V(  1) amplitude =  0.9985

 Excited state   2: excitation energy (eV) =    2.1639
 Total energy for state  2:                 -3799.33739298 au
    Multiplicity: Triplet
    Trans. Mom.:  0.0000 X   0.0000 Y   0.0000 Z
    Strength   :     0.0000000000
    D(272) --> V(  1) amplitude =  0.7824
    D(274) --> V(  1) amplitude = -0.4641

 Excited state   3: excitation energy (eV) =    2.3982
 Total energy for state  3:                 -3799.32878123 au
    Multiplicity: Triplet
    Trans. Mom.:  0.0000 X   0.0000 Y   0.0000 Z
    Strength   :     0.0000000000
    D(270) --> V(  2) amplitude = -0.4645
    D(272) --> V(  1) amplitude =  0.4412
    D(273) --> V(  1) amplitude =  0.2312
    D(274) --> V(  1) amplitude =  0.6449

 Excited state   4: excitation energy (eV) =    2.4632
 Total energy for state  4:                 -3799.32639496 au
    Multiplicity: Triplet
    Trans. Mom.:  0.0000 X   0.0000 Y   0.0000 Z
    Strength   :     0.0000000000
    D(270) --> V(  1) amplitude =  0.7464
    D(270) --> V(  4) amplitude = -0.2354
    D(272) --> V(  2) amplitude = -0.2268
    D(274) --> V(  2) amplitude = -0.4634

 ---------------------------------------------------

 Final energy is   -3799.34941118438
 **  OPTIMIZATION CONVERGED  **

                    Orbital Energies (a.u.)
 --------------------------------------------------------------

 Alpha MOs
 -- Occupied --
-89.592 -89.591 -14.682 -14.682 -10.502 -10.502 -10.501 -10.500
-10.490 -10.489 -10.480 -10.479 -10.478 -10.478 -10.473 -10.473
-10.473 -10.473 -10.473 -10.472 -10.472 -10.472 -10.472 -10.471
-10.470 -10.470 -10.470 -10.470 -10.470 -10.469 -10.469 -10.468
-10.467 -10.467 -10.466 -10.466 -10.465 -10.465 -10.465 -10.464
-10.463 -10.462 -10.462 -10.461 -10.455 -10.455 -10.452 -10.452
-10.450 -10.450 -10.450 -10.449 -10.449 -10.449 -10.448 -10.448
-10.447 -10.446 -10.445 -10.445 -10.445 -10.444 -10.444 -10.444
-10.444 -10.444 -10.444 -10.443 -10.443 -10.443 -10.440 -10.439
-10.438 -10.438 -10.437 -10.436 -10.428 -10.427  -8.232  -8.232
 -6.956  -6.956  -6.124  -6.123  -6.120  -6.120  -6.115  -6.114
 -1.098  -1.090  -1.023  -1.023  -0.978  -0.977  -0.969  -0.967
 -0.967  -0.965  -0.955  -0.953  -0.941  -0.941  -0.917  -0.907
 -0.904  -0.900  -0.893  -0.893  -0.871  -0.864  -0.864  -0.860
 -0.859  -0.857  -0.854  -0.854  -0.843  -0.843  -0.832  -0.824
 -0.822  -0.821  -0.820  -0.812  -0.812  -0.811  -0.778  -0.777
 -0.765  -0.761  -0.744  -0.740  -0.735  -0.728  -0.724  -0.722
 -0.720  -0.717  -0.715  -0.710  -0.697  -0.688  -0.687  -0.680
 -0.677  -0.675  -0.661  -0.655  -0.653  -0.653  -0.648  -0.646
 -0.634  -0.629  -0.622  -0.617  -0.605  -0.603  -0.600  -0.597
 -0.592  -0.591  -0.591  -0.584  -0.584  -0.565  -0.564  -0.561
 -0.555  -0.552  -0.546  -0.545  -0.539  -0.537  -0.536  -0.533
 -0.529  -0.528  -0.525  -0.521  -0.517  -0.516  -0.512  -0.509
 -0.505  -0.502  -0.501  -0.500  -0.499  -0.498  -0.498  -0.497
 -0.497  -0.492  -0.491  -0.491  -0.488  -0.487  -0.484  -0.483
 -0.481  -0.479  -0.479  -0.478  -0.477  -0.475  -0.475  -0.472
 -0.466  -0.463  -0.457  -0.453  -0.450  -0.449  -0.447  -0.445
 -0.441  -0.440  -0.438  -0.434  -0.432  -0.430  -0.430  -0.430
 -0.428  -0.427  -0.423  -0.418  -0.417  -0.417  -0.406  -0.405
 -0.404  -0.403  -0.402  -0.402  -0.401  -0.401  -0.399  -0.398
 -0.393  -0.392  -0.391  -0.389  -0.387  -0.381  -0.380  -0.376
 -0.373  -0.370  -0.366  -0.361  -0.360  -0.357  -0.347  -0.344
 -0.329  -0.323  -0.307  -0.304  -0.303  -0.302  -0.300  -0.297
 -0.290  -0.287  -0.286  -0.285  -0.285  -0.269  -0.266  -0.264
 -0.262  -0.262  -0.222  -0.197

          Ground-State Mulliken Net Atomic Charges

     Atom                 Charge (a.u.)
  ----------------------------------------
      1 C                    -0.281411
      2 C                     0.030007
      3 C                    -0.204270
      4 C                     0.059002
      5 C                    -0.281780
      6 C                     0.145320
      7 N                    -0.715680
      8 C                    -0.760072
      9 C                    -0.548319
     10 C                     0.440285
     11 C                    -0.209226
     12 C                    -0.305608
     13 C                     0.445107
     14 C                    -0.222934
     15 C                    -0.236485
     16 C                    -0.239432
     17 C                    -0.211095
     18 C                    -0.301941
     19 C                    -0.222294
     20 C                    -0.235984
     21 C                    -0.239633
     22 C                    -0.156098
     23 C                    -0.142108
     24 B                     0.666701
     25 C                    -0.147467
     26 C                    -0.145046
     27 B                     0.679524
     28 C                    -0.385404
     29 C                     0.114288
     30 C                     0.096029
     31 C                    -0.397319
     32 C                    -0.381592
     33 C                     0.094681
     34 C                     0.115446
     35 C                    -0.402993
     36 C                    -0.381686
     37 C                    -0.202697
     38 C                    -0.333563
     39 C                     0.252260
     40 C                    -0.068242
     41 C                     0.200332
     42 C                    -0.330331
     43 C                    -0.204488
     44 C                    -0.377128
     45 C                     0.198320
     46 C                    -0.202352
     47 C                    -0.382787
     48 C                     0.199505
     49 C                    -0.066527
     50 C                     0.253317
     51 C                    -0.335182
     52 C                     0.195234
     53 C                    -0.373418
     54 C                    -0.206070
     55 C                    -0.329932
     56 C                    -0.298333
     57 C                     0.060028
     58 C                    -0.215799
     59 C                     0.040194
     60 C                    -0.324006
     61 C                     0.216705
     62 N                    -0.710626
     63 C                    -0.547907
     64 C                    -0.760005
     65 C                     0.423768
     66 C                    -0.296386
     67 C                    -0.192264
     68 C                     0.425569
     69 C                    -0.246315
     70 C                    -0.232564
     71 C                    -0.221475
     72 C                    -0.298995
     73 C                    -0.191146
     74 C                    -0.246292
     75 C                    -0.231963
     76 C                    -0.223314
     77 H                     0.232794
     78 H                     0.230431
     79 H                     0.248437
     80 H                     0.249099
     81 H                     0.242195
     82 H                     0.252996
     83 H                     0.234746
     84 C                    -0.649364
     85 H                     0.255997
     86 H                     0.213526
     87 H                     0.216494
     88 H                     0.228668
     89 H                     0.256537
     90 H                     0.209240
     91 H                     0.216073
     92 H                     0.228863
     93 H                     0.228714
     94 H                     0.231640
     95 H                     0.228149
     96 H                     0.230051
     97 H                     0.219448
     98 H                     0.229325
     99 H                     0.224171
    100 H                     0.224000
    101 H                     0.229497
    102 H                     0.219739
    103 H                     0.229370
    104 H                     0.218772
    105 H                     0.223991
    106 H                     0.220931
    107 H                     0.229780
    108 H                     0.223725
    109 H                     0.226084
    110 H                     0.238412
    111 H                     0.236724
    112 H                     0.251674
    113 C                    -0.642013
    114 H                     0.241597
    115 H                     0.246878
    116 H                     0.248017
    117 H                     0.252921
    118 H                     0.231639
    119 H                     0.218681
    120 H                     0.216489
    121 H                     0.252932
    122 H                     0.231901
    123 H                     0.218628
    124 H                     0.216374
    125 H                     0.220588
    126 H                     0.223334
    127 H                     0.234237
    128 H                     0.222953
    129 H                     0.219694
    130 H                     0.243962
    131 S                     0.144304
    132 S                     0.180315
  ----------------------------------------
  Sum of atomic charges =    -0.000000

                    Cartesian Multipole Moments
 -----------------------------------------------------------------
    Charge (ESU x 10^10)
                -0.0000
    Dipole Moment (Debye)
         X      -0.0778      Y      -0.0059      Z      -0.9947
       Tot       0.9978
    Quadrupole Moments (Debye-Ang)
        XX    -481.7115     XY     -34.4834     YY    -412.3438
        XZ       1.6563     YZ     -28.9286     ZZ    -495.9520

 Total job time:  132588.28s(wall), 811281.63s(cpu)
        *  Thank you very much for using Q-Chem.  Have a nice day.  *
