 Q-Chem 5.1, Q-Chem, Inc., Pleasanton, CA (2018)
 Q-Chem 5.1.1 for Intel X86 EM64T Linux

User input:
--------------------------------------------------------------
$rem
threads 8
jobtype	sp
method PBEh-3c
basis def2-mSVP
mem_static	1024
mem_total	8000
sym_ignore	true
unrestricted true
scf_convergence	9
solvent_method	pcm
$end

$molecule
read incoords.mol
$end

$solvent
dielectric	8.93
$end

$pcm
theory iefpcm
HPoints 194
HeavyPoints 194
$end
--------------------------------------------------------------

   15   -3629.2871907012      9.70e-10  Convergence criterion met
 Total energy in the final basis set =    -3629.2871907012
 Total job time:  4734.23s(wall), 36246.79s(cpu)
        *  Thank you very much for using Q-Chem.  Have a nice day.  *
 Q-Chem 5.1, Q-Chem, Inc., Pleasanton, CA (2018)
 Q-Chem 5.1.1 for Intel X86 EM64T Linux

User input:
--------------------------------------------------------------

$rem
threads 8
jobtype opt
method PBEh-3c
basis def2-mSVP
scf_guess	read
mem_static      1024
mem_total       8000
sym_ignore      true
unrestricted true
mom_start       1
scf_algorithm	diis
scf_max_cycles	250
solvent_method	pcm
geom_opt_tol_energy 25
geom_opt_tol_gradient 75
$end

$solvent
dielectric      8.93
$end
$pcm
theory iefpcm
HPoints 194
HeavyPoints 194
$end

$occupied
1 2 3 4 5 6 7 8 9 10 11 12 13 14 15 16 17 18 19 20 21 22 23 24 25 26 27 28 29 30 31 32 33 34 35 36 37 38 39 40 41 42 43 44 45 46 47 48 49 50 51 52 53 54 55 56 57 58 59 60 61 62 63 64 65 66 67 68 69 70 71 72 73 74 75 76 77 78 79 80 81 82 83 84 85 86 87 88 89 90 91 92 93 94 95 96 97 98 99 100 101 102 103 104 105 106 107 108 109 110 111 112 113 114 115 116 117 118 119 120 121 122 123 124 125 126 127 128 129 130 131 132 133 134 135 136 137 138 139 140 141 142 143 144 145 146 147 148 149 150 151 152 153 154 155 156 157 158 159 160 161 162 163 164 165 166 167 168 169 170 171 172 173 174 175 176 177 178 179 180 181 182 183 184 185 186 187 188 189 190 191 192 193 194 195 196 197 198 199 200 201 202 203 204 205 206 207 208 209 210 211 212 213 214 215 216 217 218 219 220 221 222 223 224 225 226 227 228 229 230 231 232 233 234 235 236 237 238 239 240 241 242 243 244 245 246 247 248 249 250 251 252 253 254 255 256 257 258 259 260 261 262 263 264 265 266 267 268 269 270 271 272 273 274 275 276 277 278 279 280 281 282 283 284 285 286 287 288 289 290 291 292 293 294 295 296 297 298 299 300 301 302 303 304 305 306 307 308 309 310 311 312 313 314 315 316 317 318 319 320 321  323
1 2 3 4 5 6 7 8 9 10 11 12 13 14 15 16 17 18 19 20 21 22 23 24 25 26 27 28 29 30 31 32 33 34 35 36 37 38 39 40 41 42 43 44 45 46 47 48 49 50 51 52 53 54 55 56 57 58 59 60 61 62 63 64 65 66 67 68 69 70 71 72 73 74 75 76 77 78 79 80 81 82 83 84 85 86 87 88 89 90 91 92 93 94 95 96 97 98 99 100 101 102 103 104 105 106 107 108 109 110 111 112 113 114 115 116 117 118 119 120 121 122 123 124 125 126 127 128 129 130 131 132 133 134 135 136 137 138 139 140 141 142 143 144 145 146 147 148 149 150 151 152 153 154 155 156 157 158 159 160 161 162 163 164 165 166 167 168 169 170 171 172 173 174 175 176 177 178 179 180 181 182 183 184 185 186 187 188 189 190 191 192 193 194 195 196 197 198 199 200 201 202 203 204 205 206 207 208 209 210 211 212 213 214 215 216 217 218 219 220 221 222 223 224 225 226 227 228 229 230 231 232 233 234 235 236 237 238 239 240 241 242 243 244 245 246 247 248 249 250 251 252 253 254 255 256 257 258 259 260 261 262 263 264 265 266 267 268 269 270 271 272 273 274 275 276 277 278 279 280 281 282 283 284 285 286 287 288 289 290 291 292 293 294 295 296 297 298 299 300 301 302 303 304 305 306 307 308 309 310 311 312 313 314 315 316 317 318 319 320 321 322
$end

$molecule
read
$end

--------------------------------------------------------------

   20   -3629.2169074307      7.37E-09 Convergence criterion met
 Total energy in the final basis set = -3629.21690743
   17   -3629.2173565465      8.08E-09 Convergence criterion met
 Total energy in the final basis set = -3629.21735655
   17   -3629.2161996964      8.53E-09 Convergence criterion met
 Total energy in the final basis set = -3629.21619970
   17   -3629.2148960738      9.14E-09 Convergence criterion met
 Total energy in the final basis set = -3629.21489607
   18   -3629.2165018443      7.74E-09 Convergence criterion met
 Total energy in the final basis set = -3629.21650184
   16   -3629.2160985601      7.48E-09 Convergence criterion met
 Total energy in the final basis set = -3629.21609856
   17   -3629.2171330559      8.27E-09 Convergence criterion met
   17   -3629.2178302587      7.33E-09 Convergence criterion met
 Total energy in the final basis set = -3629.21783026
   17   -3629.2178290759      7.46E-09 Convergence criterion met
 Total energy in the final basis set = -3629.21782908
   17   -3629.2178285383      7.39E-09 Convergence criterion met
 Total energy in the final basis set = -3629.21782854
   17   -3629.2178268013      7.49E-09 Convergence criterion met
 Total energy in the final basis set = -3629.21782680
   17   -3629.2178260110      7.50E-09 Convergence criterion met
 Total energy in the final basis set = -3629.21782601
   17   -3629.2178256155      7.53E-09 Convergence criterion met
 Total energy in the final basis set = -3629.21782562

             Standard Nuclear Orientation (Angstroms)
    I     Atom           X                Y                Z
 ----------------------------------------------------------------
    1      N       0.0001000802    -0.1165337656     0.0130666676
    2      C       0.0519837493    -0.1918472164     1.4032427928
    3      C       1.1767718098    -0.2281187221    -0.7241417927
    4      C      -0.9264005396     0.4112321661     2.1944743016
    5      H      -1.7634412133     0.9170406556     1.7321572317
    6      C      -0.8233749563     0.3761730025     3.5749643840
    7      H      -1.5897269214     0.8502232963     4.1754347770
    8      C       0.2589936973    -0.2443248300     4.1794533473
    9      H       0.3529504178    -0.2612616927     5.2571926900
   10      C       1.2143085366    -0.8676473782     3.3879879960
   11      H       2.0366607181    -1.3766398749     3.8721144309
   12      C       1.1161861096    -0.8805008627     2.0028688714
   13      C       1.2877970939     0.3377258180    -1.9960732943
   14      H       0.4462921019     0.8509469320    -2.4413701076
   15      C       2.4801376584     0.2539405116    -2.6950182922
   16      H       2.5486416889     0.6989285351    -3.6797390258
   17      C       3.5773418931    -0.3797392750    -2.1330655696
   18      H       4.5151827816    -0.4377540110    -2.6695323347
   19      C       3.4545171260    -0.9625975924    -0.8793695547
   20      H       4.3066335910    -1.4835752585    -0.4644849170
   21      C       2.2604867826    -0.9225838321    -0.1705166134
   22      C      -1.2285461126     0.1557171441    -0.6527994206
   23      C      -2.0142076440    -0.9126320907    -1.0517568761
   24      H      -1.6879326335    -1.9232771002    -0.8298439326
   25      C      -1.6435597495     1.4481263432    -0.9306167109
   26      H      -1.0300543210     2.2868852157    -0.6185152730
   27      C      -3.2063161168    -0.7058528694    -1.7367439152
   28      C      -2.8316536043     1.6749329775    -1.6221354656
   29      C      -3.6284170048     0.5980902831    -2.0444785036
   30      C      -3.1974269115     3.0941722274    -1.9707493823
   31      H      -4.2828709883     3.2100212889    -1.9860211036
   32      H      -2.8248695990     3.7697368968    -1.1962725924
   33      C      -4.0409161948    -1.9088505720    -2.0955542059
   34      H      -4.5590831145    -1.7426583217    -3.0418379907
   35      H      -3.3877972288    -2.7719656735    -2.2498568668
   36      C       2.0159650899    -1.7089873300     1.1026197689
   37      C       3.3131882309    -2.1207540345     1.7904256355
   38      H       3.9128306808    -2.7559544789     1.1384140935
   39      H       3.1099573674    -2.7102773148     2.6839977197
   40      H       3.9176358529    -1.2593819718     2.0779474164
   41      C      -5.0659887604    -2.2440363675    -1.0134643333
   42      H      -5.7618853432    -1.4183860885    -0.8628090066
   43      H      -5.6494003697    -3.1242905991    -1.2875726615
   44      H      -4.5788226598    -2.4492051004    -0.0589279606
   45      C      -2.6265579865     3.5150193864    -3.3236730420
   46      H      -3.0062265382     2.8780822212    -4.1229721351
   47      H      -2.8970402661     4.5450007810    -3.5606304301
   48      H      -1.5375646879     3.4448021805    -3.3299146883
   49      C       1.2507281375    -2.9947296440     0.7195308644
   50      H       0.3036449118    -2.7760096598     0.2260328421
   51      H       1.0337912382    -3.5876882827     1.6100410689
   52      H       1.8494384459    -3.6028107314     0.0387667668
   53      B      -4.9494920592     0.8350968826    -2.8904384695
   54      C      -4.9350069179     0.6419962548    -4.4152793362
   55      C      -3.7727715452     0.2607972262    -5.0904315870
   56      H      -2.8770506718     0.1443089372    -4.4948115758
   57      C      -3.7125583223     0.0236623844    -6.4604175310
   58      C      -4.9017770208     0.1872220733    -7.2222211262
   59      C      -6.0551148785     0.5918357003    -6.5621561334
   60      H      -6.9635138523     0.7400040253    -7.1318345835
   61      C      -6.1255632739     0.8249870358    -5.1872441983
   62      C      -2.4796380367    -0.3845267316    -7.1246912222
   63      C      -1.2915463937    -0.5857219862    -6.4024327974
   64      H      -1.2873637849    -0.4471291190    -5.3297219912
   65      C      -0.1088741813    -0.9657222832    -7.0007744895
   66      C      -0.1055013470    -1.1509720706    -8.3875156619
   67      H       0.8066687867    -1.4479741480    -8.8916293239
   68      C      -1.2550664995    -0.9673980456    -9.1184605909
   69      H      -1.2036352078    -1.1300249131   -10.1858496886
   70      C      -2.4652609181    -0.5882359900    -8.5170330097
   71      C      -4.8888502882    -0.0624684653    -8.6600781321
   72      C      -3.6896437402    -0.4250433603    -9.2979956822
   73      C      -3.7162462056    -0.6387805770   -10.6858175329
   74      H      -2.8144049702    -0.9140274014   -11.2139457690
   75      C      -4.8723262088    -0.5161487971   -11.4201655547
   76      H      -4.8487015398    -0.6949463233   -12.4888333615
   77      C      -6.0762580680    -0.1740172643   -10.7959097396
   78      C      -6.0573675103     0.0445903046    -9.4344313035
   79      H      -6.9948260807     0.2999276308    -8.9585853078
   80      C       1.1404140951    -1.1742177791    -6.1982663576
   81      H       0.9504684539    -1.0851137698    -5.1292175366
   82      H       1.5670188335    -2.1617703273    -6.3802365487
   83      H       1.9059365416    -0.4416458215    -6.4616540843
   84      C      -7.3419229227    -0.0394864985   -11.5905146074
   85      H      -8.2162867237     0.0211799491   -10.9425162840
   86      H      -7.4828412124    -0.8867458603   -12.2627642055
   87      H      -7.3261306357     0.8604397497   -12.2094078917
   88      B      -7.4376073518     1.2492460755    -4.5221945193
   89      C      -7.4536941278     1.4459521837    -3.0031766363
   90      C      -8.6189718421     1.8232455020    -2.3331733262
   91      H      -9.5024042218     1.9799099786    -2.9386038393
   92      C      -8.7037176625     1.9856444061    -0.9558818210
   93      C      -7.5465613455     1.7231082139    -0.1737723172
   94      C      -6.3738503574     1.3725880647    -0.8362688742
   95      H      -5.4764208805     1.1837681775    -0.2615513130
   96      C      -6.2736655504     1.2325990587    -2.2227518135
   97      C      -7.6245776015     1.8034019641     1.2803607813
   98      C      -6.5133456880     1.5098758529     2.0876255394
   99      H      -5.5769798765     1.2291325618     1.6249388368
  100      C      -6.5577574653     1.5522307694     3.4646378698
  101      C      -7.7698688480     1.9020971887     4.0698442472
  102      H      -7.8442096035     1.9407157020     5.1502863764
  103      C      -8.8736840477     2.1946350614     3.3039157969
  104      H      -9.7880032001     2.4555978824     3.8181865807
  105      C      -8.8366785523     2.1561794569     1.9012260758
  106      C      -9.9425682186     2.4020619711    -0.3089364880
  107      C     -11.0798132738     2.7466929018    -1.0592052674
  108      H     -11.0353988400     2.7227208618    -2.1399266446
  109      C     -12.2688818884     3.1356297030    -0.4801656928
  110      C     -12.3295333009     3.1873211481     0.9164604313
  111      H     -13.2471376996     3.4897149571     1.4073911015
  112      C     -11.2279422592     2.8681530924     1.6749242520
  113      H     -11.3225230493     2.9348646776     2.7495544986
  114      C     -10.0119454044     2.4752811893     1.0929000519
  115      C      -5.3495657550     1.2318924683     4.2932375177
  116      H      -4.5092005798     0.9226581934     3.6720665760
  117      H      -5.5559857614     0.4263551499     4.9996951183
  118      H      -5.0310925701     2.0968335513     4.8779044477
  119      C     -13.4646366108     3.4902920902    -1.3137618712
  120      H     -13.2133681423     3.5390841610    -2.3732160908
  121      H     -13.8794487776     4.4569119956    -1.0246548040
  122      H     -14.2618009745     2.7530281949    -1.1955118299
  123      C      -8.7627325666     1.4444846230    -5.3788485791
  124      C      -9.5599426777     0.3356127459    -5.7097706261
  125      C     -10.7275693510     0.5010263894    -6.4464608511
  126      H     -11.3434854363    -0.3539598016    -6.7038153515
  127      C     -11.1037523994     1.7672543626    -6.8449405211
  128      C     -10.3445856105     2.8789790511    -6.5406873130
  129      H     -10.6613515850     3.8625513237    -6.8694124177
  130      C      -9.1694406803     2.7176878043    -5.8130770325
  131      N     -12.3188804133     1.9192848712    -7.6001915592
  132      C     -13.5128330725     1.9786969661    -6.9191051859
  133      C     -12.2374954020     1.9652488831    -8.9719201736
  134      C     -13.4081299903     2.0828123788    -9.7457959214
  135      C     -13.2687801913     2.1315260379   -11.1253401595
  136      H     -14.1500331823     2.2165693633   -11.7465240451
  137      C     -12.0284140749     2.0657224325   -11.7368559896
  138      H     -11.9583575649     2.1076569463   -12.8152732574
  139      C     -10.8766736206     1.9369961021   -10.9624081034
  140      H      -9.9050981623     1.8760183065   -11.4325024697
  141      C     -10.9737633612     1.8811915185    -9.5943701510
  142      H     -10.0780578783     1.7701514869    -9.0017306812
  143      C     -14.7270758563     2.0745868042    -7.6277504604
  144      C     -15.9030622984     2.1130733440    -6.8926740132
  145      H     -16.8517193028     2.1809892704    -7.4079268017
  146      C     -15.9001112540     2.0630410603    -5.5091018530
  147      H     -16.8363603259     2.0926487847    -4.9685635024
  148      C     -14.6928327124     1.9787720889    -4.8176885814
  149      H     -14.6831418135     1.9438532929    -3.7373647687
  150      C     -13.5077692222     1.9401758979    -5.5094656710
  151      H     -12.5764688716     1.8780182880    -4.9667049675
  152      C      -8.3204565850     3.9353364142    -5.5674983362
  153      H      -7.7394430155     3.8094336125    -4.6524300131
  154      H      -8.9620161023     4.8067844023    -5.4134453213
  155      C      -9.2238754494    -1.0556325502    -5.2412204348
  156      H      -8.1479708015    -1.1544701737    -5.0905819394
  157      H      -9.4954812980    -1.7763085508    -6.0172284122
  158      C     -14.7857867499     2.1266494254    -9.1340860651
  159      C      -9.9547152188    -1.4083545431    -3.9472890696
  160      H      -9.6820932102    -0.7211565990    -3.1460083933
  161      H      -9.7034304281    -2.4181436528    -3.6213155246
  162      H     -11.0369695735    -1.3586673095    -4.0791263660
  163      C      -7.3758866366     4.2015089361    -6.7382368749
  164      H      -6.7076577574     3.3552153635    -6.8999572032
  165      H      -6.7603246359     5.0817993744    -6.5507363782
  166      H      -7.9316668960     4.3715997049    -7.6619825403
  167      C     -15.4899115879     3.4291733745    -9.5673801931
  168      H     -16.5003312985     3.4775566417    -9.1628093512
  169      H     -15.5738930009     3.4803897547   -10.6524122199
  170      H     -14.9416510159     4.3063706326    -9.2252369287
  171      C     -15.5873668788     0.9093324644    -9.6434306241
  172      H     -15.6773879710     0.9351517893   -10.7288938784
  173      H     -16.5957651174     0.9116565985    -9.2313919520
  174      H     -15.1045354377    -0.0261637920    -9.3622933310
 ----------------------------------------------------------------

   17   -3629.2178262445      7.54E-09 Convergence criterion met
 Total energy in the final basis set = -3629.21782624
 Final energy is   -3629.21782624445
 **  OPTIMIZATION CONVERGED  **

                    Orbital Energies (a.u.)
 --------------------------------------------------------------

 Alpha MOs
 -- Occupied --
-14.771 -14.670 -10.543 -10.543 -10.507 -10.502 -10.501 -10.501
-10.488 -10.487 -10.484 -10.484 -10.480 -10.480 -10.478 -10.478
-10.477 -10.477 -10.475 -10.465 -10.460 -10.459 -10.458 -10.458
-10.458 -10.457 -10.457 -10.457 -10.456 -10.456 -10.456 -10.455
-10.455 -10.455 -10.453 -10.452 -10.449 -10.449 -10.447 -10.447
-10.447 -10.447 -10.446 -10.446 -10.445 -10.445 -10.444 -10.444
-10.443 -10.442 -10.442 -10.442 -10.442 -10.441 -10.441 -10.441
-10.441 -10.441 -10.440 -10.439 -10.438 -10.438 -10.438 -10.438
-10.435 -10.435 -10.434 -10.433 -10.433 -10.432 -10.432 -10.431
-10.431 -10.431 -10.431 -10.430 -10.430 -10.426 -10.425 -10.424
-10.424 -10.422 -10.421 -10.420 -10.419 -10.416 -10.413 -10.413
-10.406 -10.406 -10.405 -10.405  -6.898  -6.898  -1.148  -1.083
 -1.003  -1.000  -0.989  -0.989  -0.970  -0.965  -0.956  -0.955
 -0.955  -0.944  -0.943  -0.939  -0.937  -0.907  -0.896  -0.895
 -0.894  -0.893  -0.886  -0.881  -0.875  -0.866  -0.865  -0.864
 -0.858  -0.855  -0.852  -0.846  -0.844  -0.843  -0.835  -0.832
 -0.816  -0.815  -0.812  -0.811  -0.806  -0.803  -0.802  -0.795
 -0.791  -0.789  -0.789  -0.788  -0.782  -0.766  -0.757  -0.753
 -0.748  -0.747  -0.722  -0.721  -0.718  -0.716  -0.706  -0.706
 -0.705  -0.704  -0.702  -0.700  -0.694  -0.693  -0.682  -0.676
 -0.671  -0.668  -0.666  -0.658  -0.657  -0.655  -0.653  -0.650
 -0.641  -0.637  -0.633  -0.624  -0.616  -0.614  -0.608  -0.608
 -0.602  -0.602  -0.596  -0.579  -0.574  -0.573  -0.568  -0.565
 -0.561  -0.560  -0.557  -0.553  -0.550  -0.549  -0.541  -0.537
 -0.535  -0.532  -0.531  -0.530  -0.526  -0.523  -0.522  -0.521
 -0.520  -0.517  -0.516  -0.515  -0.512  -0.508  -0.504  -0.503
 -0.500  -0.499  -0.497  -0.496  -0.495  -0.493  -0.488  -0.487
 -0.485  -0.483  -0.483  -0.482  -0.481  -0.481  -0.479  -0.478
 -0.476  -0.475  -0.474  -0.474  -0.473  -0.471  -0.468  -0.464
 -0.463  -0.463  -0.463  -0.462  -0.462  -0.461  -0.458  -0.455
 -0.455  -0.455  -0.453  -0.444  -0.443  -0.443  -0.441  -0.440
 -0.438  -0.437  -0.436  -0.433  -0.432  -0.431  -0.430  -0.428
 -0.424  -0.423  -0.423  -0.420  -0.418  -0.416  -0.415  -0.414
 -0.413  -0.412  -0.410  -0.409  -0.406  -0.404  -0.404  -0.403
 -0.401  -0.401  -0.400  -0.400  -0.397  -0.397  -0.395  -0.392
 -0.389  -0.388  -0.385  -0.384  -0.382  -0.382  -0.379  -0.374
 -0.371  -0.371  -0.370  -0.368  -0.363  -0.353  -0.349  -0.344
 -0.341  -0.326  -0.325  -0.322  -0.321  -0.320  -0.318  -0.318
 -0.317  -0.317  -0.311  -0.296  -0.288  -0.287  -0.287  -0.281
 -0.278  -0.271  -0.268  -0.267  -0.263  -0.249  -0.243  -0.241
 -0.226  -0.144

 Beta MOs
 -- Occupied --
-14.783 -14.670 -10.541 -10.541 -10.506 -10.504 -10.504 -10.502
-10.487 -10.487 -10.486 -10.486 -10.484 -10.484 -10.476 -10.476
-10.475 -10.475 -10.475 -10.465 -10.460 -10.459 -10.458 -10.458
-10.458 -10.458 -10.457 -10.457 -10.457 -10.457 -10.455 -10.455
-10.455 -10.455 -10.453 -10.452 -10.449 -10.449 -10.447 -10.447
-10.447 -10.447 -10.446 -10.446 -10.445 -10.445 -10.444 -10.444
-10.443 -10.442 -10.442 -10.442 -10.442 -10.441 -10.441 -10.441
-10.441 -10.441 -10.439 -10.439 -10.438 -10.438 -10.438 -10.438
-10.435 -10.435 -10.434 -10.433 -10.433 -10.432 -10.432 -10.431
-10.431 -10.431 -10.430 -10.430 -10.430 -10.426 -10.425 -10.424
-10.424 -10.422 -10.421 -10.420 -10.419 -10.416 -10.413 -10.413
-10.406 -10.406 -10.405 -10.405  -6.895  -6.895  -1.167  -1.083
 -1.008  -1.004  -0.988  -0.988  -0.971  -0.965  -0.956  -0.955
 -0.954  -0.947  -0.942  -0.938  -0.936  -0.907  -0.898  -0.895
 -0.894  -0.893  -0.887  -0.881  -0.878  -0.865  -0.864  -0.863
 -0.857  -0.855  -0.855  -0.846  -0.843  -0.843  -0.839  -0.832
 -0.816  -0.815  -0.814  -0.812  -0.804  -0.802  -0.801  -0.795
 -0.791  -0.790  -0.789  -0.788  -0.782  -0.766  -0.759  -0.759
 -0.747  -0.747  -0.723  -0.722  -0.718  -0.716  -0.708  -0.705
 -0.705  -0.703  -0.701  -0.700  -0.693  -0.692  -0.681  -0.676
 -0.671  -0.668  -0.667  -0.660  -0.656  -0.655  -0.653  -0.652
 -0.641  -0.639  -0.633  -0.623  -0.615  -0.613  -0.608  -0.608
 -0.601  -0.600  -0.596  -0.582  -0.578  -0.577  -0.573  -0.565
 -0.562  -0.559  -0.557  -0.553  -0.550  -0.548  -0.541  -0.536
 -0.536  -0.535  -0.533  -0.531  -0.530  -0.526  -0.522  -0.520
 -0.519  -0.517  -0.516  -0.515  -0.512  -0.509  -0.504  -0.503
 -0.501  -0.498  -0.498  -0.497  -0.496  -0.493  -0.492  -0.488
 -0.487  -0.484  -0.483  -0.481  -0.481  -0.481  -0.480  -0.478
 -0.477  -0.475  -0.475  -0.474  -0.472  -0.470  -0.469  -0.467
 -0.463  -0.463  -0.462  -0.462  -0.462  -0.461  -0.458  -0.456
 -0.455  -0.454  -0.453  -0.449  -0.444  -0.443  -0.442  -0.440
 -0.437  -0.437  -0.436  -0.434  -0.433  -0.431  -0.430  -0.428
 -0.428  -0.423  -0.422  -0.422  -0.419  -0.416  -0.416  -0.415
 -0.414  -0.413  -0.411  -0.408  -0.407  -0.405  -0.403  -0.403
 -0.402  -0.401  -0.400  -0.400  -0.398  -0.398  -0.395  -0.392
 -0.389  -0.388  -0.386  -0.384  -0.382  -0.381  -0.378  -0.374
 -0.371  -0.371  -0.369  -0.368  -0.363  -0.353  -0.347  -0.342
 -0.341  -0.332  -0.330  -0.323  -0.322  -0.319  -0.318  -0.317
 -0.316  -0.316  -0.310  -0.296  -0.289  -0.288  -0.287  -0.283
 -0.281  -0.271  -0.270  -0.266  -0.266  -0.254  -0.245  -0.241
 -0.236  -0.226

          Ground-State Mulliken Net Atomic Charges

     Atom                 Charge (a.u.)    Spin (a.u.)
  --------------------------------------------------------
      1 N                    -0.709228      -0.000177
      2 C                     0.314157       0.000058
      3 C                     0.311262       0.000062
      4 C                    -0.314674       0.000005
      5 H                     0.262019      -0.000008
      6 C                    -0.265762      -0.000005
      7 H                     0.243926       0.000000
      8 C                    -0.252436       0.000004
      9 H                     0.237393      -0.000000
     10 C                    -0.346971      -0.000002
     11 H                     0.239393       0.000001
     12 C                     0.139800       0.000004
     13 C                    -0.315983      -0.000014
     14 H                     0.265473      -0.000004
     15 C                    -0.262241       0.000005
     16 H                     0.243886      -0.000000
     17 C                    -0.254157      -0.000007
     18 H                     0.237399       0.000000
     19 C                    -0.345547       0.000009
     20 H                     0.239470       0.000001
     21 C                     0.140706      -0.000003
     22 C                     0.232817       0.003027
     23 C                    -0.328970      -0.002417
     24 H                     0.239659       0.000489
     25 C                    -0.339280      -0.002388
     26 H                     0.241367       0.000454
     27 C                     0.043265       0.005995
     28 C                     0.033663       0.005601
     29 C                    -0.173855      -0.031564
     30 C                    -0.540433       0.002920
     31 H                     0.255436      -0.002195
     32 H                     0.232436       0.000482
     33 C                    -0.540909       0.002978
     34 H                     0.257281      -0.002366
     35 H                     0.232577       0.000513
     36 C                    -0.216189       0.000001
     37 C                    -0.677206       0.000000
     38 H                     0.239505      -0.000000
     39 H                     0.239938      -0.000000
     40 H                     0.238793       0.000000
     41 C                    -0.660810      -0.000095
     42 H                     0.242731      -0.000506
     43 H                     0.222022      -0.000010
     44 H                     0.216944      -0.000083
     45 C                    -0.661496       0.000112
     46 H                     0.244147      -0.000615
     47 H                     0.222487      -0.000016
     48 H                     0.215639      -0.000081
     49 C                    -0.623346       0.000005
     50 H                     0.247180       0.000004
     51 H                     0.227636      -0.000000
     52 H                     0.227655      -0.000000
     53 B                     0.492447       0.328648
     54 C                    -0.096065       0.042581
     55 C                    -0.452917      -0.026583
     56 H                     0.235719       0.000549
     57 C                     0.083056       0.069633
     58 C                     0.081472       0.047996
     59 C                    -0.455444      -0.004835
     60 H                     0.224105      -0.000772
     61 C                    -0.091239       0.020300
     62 C                     0.107044      -0.022771
     63 C                    -0.418105       0.019792
     64 H                     0.239197      -0.001176
     65 C                     0.126238      -0.013399
     66 C                    -0.290921       0.024005
     67 H                     0.236928      -0.001449
     68 C                    -0.334141      -0.013598
     69 H                     0.235475       0.000674
     70 C                     0.055237       0.021161
     71 C                     0.105904      -0.014906
     72 C                     0.055168       0.012490
     73 C                    -0.333939      -0.007650
     74 H                     0.236666       0.000339
     75 C                    -0.291653       0.016540
     76 H                     0.237261      -0.001019
     77 C                     0.128962      -0.008058
     78 C                    -0.415782       0.013208
     79 H                     0.231039      -0.000763
     80 C                    -0.725990       0.001055
     81 H                     0.247130      -0.000062
     82 H                     0.241069      -0.000407
     83 H                     0.240052      -0.000486
     84 C                    -0.727437       0.000687
     85 H                     0.239261      -0.000029
     86 H                     0.242897      -0.000220
     87 H                     0.241772      -0.000298
     88 B                     0.480691       0.363790
     89 C                    -0.093290       0.021603
     90 C                    -0.452499      -0.005297
     91 H                     0.223180      -0.000754
     92 C                     0.077986       0.049384
     93 C                     0.083957       0.070481
     94 C                    -0.455488      -0.026709
     95 H                     0.235167       0.000580
     96 C                    -0.092572       0.041687
     97 C                     0.106541      -0.022980
     98 C                    -0.416717       0.020010
     99 H                     0.238226      -0.001187
    100 C                     0.126082      -0.013544
    101 C                    -0.291020       0.024335
    102 H                     0.236987      -0.001469
    103 C                    -0.334630      -0.013748
    104 H                     0.235443       0.000681
    105 C                     0.056091       0.021327
    106 C                     0.105276      -0.015367
    107 C                    -0.415044       0.013555
    108 H                     0.231255      -0.000769
    109 C                     0.128647      -0.008291
    110 C                    -0.291113       0.017011
    111 H                     0.237244      -0.001047
    112 C                    -0.334529      -0.007913
    113 H                     0.236598       0.000352
    114 C                     0.056742       0.012914
    115 C                    -0.724170       0.001065
    116 H                     0.244230      -0.000063
    117 H                     0.241556      -0.000428
    118 H                     0.241472      -0.000476
    119 C                    -0.728563       0.000706
    120 H                     0.239160      -0.000035
    121 H                     0.244433      -0.000249
    122 H                     0.241259      -0.000298
    123 C                    -0.163002      -0.037669
    124 C                     0.028604       0.008819
    125 C                    -0.285316      -0.020491
    126 H                     0.257351       0.001370
    127 C                     0.127444       0.034951
    128 C                    -0.291030      -0.020093
    129 H                     0.257438       0.001234
    130 C                     0.030335       0.009220
    131 N                    -0.607394      -0.442814
    132 C                     0.305570       0.098369
    133 C                     0.306074       0.098339
    134 C                     0.187224      -0.231783
    135 C                    -0.308563       0.151072
    136 H                     0.271901      -0.007032
    137 C                    -0.208471      -0.250708
    138 H                     0.278894       0.013331
    139 C                    -0.252897       0.128540
    140 H                     0.282227      -0.005855
    141 C                    -0.274587      -0.180147
    142 H                     0.311083       0.009765
    143 C                     0.187146      -0.231201
    144 C                    -0.309060       0.150556
    145 H                     0.272047      -0.007005
    146 C                    -0.208605      -0.250112
    147 H                     0.278803       0.013301
    148 C                    -0.252589       0.128422
    149 H                     0.282962      -0.005870
    150 C                    -0.275176      -0.179594
    151 H                     0.311492       0.009720
    152 C                    -0.542337       0.002703
    153 H                     0.266807      -0.002796
    154 H                     0.236791       0.000651
    155 C                    -0.544000       0.002502
    156 H                     0.269009      -0.003051
    157 H                     0.237105       0.000748
    158 C                    -0.232005       0.038608
    159 C                    -0.659892      -0.000177
    160 H                     0.244810      -0.000381
    161 H                     0.230234      -0.000034
    162 H                     0.213788      -0.000071
    163 C                    -0.660568      -0.000132
    164 H                     0.244690      -0.000391
    165 H                     0.230512      -0.000028
    166 H                     0.214103      -0.000083
    167 C                    -0.618768      -0.022223
    168 H                     0.250166      -0.000152
    169 H                     0.249644      -0.000187
    170 H                     0.249708       0.000788
    171 C                    -0.616187      -0.023410
    172 H                     0.249494      -0.000289
    173 H                     0.250190      -0.000334
    174 H                     0.249176       0.000894
  --------------------------------------------------------
  Sum of atomic charges =    -0.000000

                    Cartesian Multipole Moments
 -----------------------------------------------------------------
    Charge (ESU x 10^10)
                -0.0000
    Dipole Moment (Debye)
         X     -31.8098      Y       3.6952      Z     -20.0157
       Tot      37.7644
    Quadrupole Moments (Debye-Ang)
        XX      86.4380     XY     -99.6807     YY    -542.8761
        XZ     369.4606     YZ     -57.4137     ZZ    -275.2582

 Total job time:  125644.27s(wall), 622739.33s(cpu)
        *  Thank you very much for using Q-Chem.  Have a nice day.  *
