 Q-Chem 5.1, Q-Chem, Inc., Pleasanton, CA (2018)
 Q-Chem 5.1.1 for Intel X86 EM64T Linux

User input:
--------------------------------------------------------------
$rem
threads 8
jobtype	sp
method PBEh-3c
basis def2-mSVP
mem_static	1024
mem_total	8000
sym_ignore	true
unrestricted true
scf_convergence	9
solvent_method	pcm
$end

$molecule
read incoords.mol
$end

$solvent
dielectric	8.93
$end

$pcm
theory iefpcm
HPoints 194
HeavyPoints 194
$end
--------------------------------------------------------------

   15   -3629.2907660949      8.45e-10  Convergence criterion met
 Total energy in the final basis set =    -3629.2907660949

                    Orbital Energies (a.u.)
 --------------------------------------------------------------

 Alpha MOs
 -- Occupied --
-14.678 -14.677 -10.495 -10.495 -10.494 -10.494 -10.486 -10.485
-10.474 -10.474 -10.473 -10.473 -10.469 -10.469 -10.469 -10.469
-10.468 -10.468 -10.468 -10.468 -10.468 -10.468 -10.462 -10.462
-10.461 -10.461 -10.458 -10.458 -10.458 -10.458 -10.458 -10.457
-10.457 -10.456 -10.453 -10.452 -10.452 -10.452 -10.452 -10.452
-10.452 -10.452 -10.450 -10.450 -10.450 -10.450 -10.449 -10.449
-10.449 -10.449 -10.445 -10.445 -10.444 -10.444 -10.444 -10.444
-10.444 -10.444 -10.444 -10.444 -10.443 -10.443 -10.441 -10.441
-10.441 -10.441 -10.438 -10.438 -10.438 -10.437 -10.437 -10.437
-10.437 -10.436 -10.436 -10.436 -10.436 -10.436 -10.434 -10.433
-10.432 -10.432 -10.431 -10.430 -10.423 -10.423 -10.423 -10.423
-10.423 -10.423 -10.422 -10.421  -6.956  -6.955  -1.091  -1.090
 -1.005  -1.005  -0.974  -0.974  -0.965  -0.965  -0.963  -0.961
 -0.961  -0.959  -0.953  -0.952  -0.910  -0.909  -0.908  -0.905
 -0.895  -0.894  -0.884  -0.882  -0.880  -0.875  -0.870  -0.869
 -0.852  -0.852  -0.852  -0.852  -0.837  -0.837  -0.830  -0.827
 -0.824  -0.822  -0.822  -0.816  -0.816  -0.812  -0.807  -0.806
 -0.796  -0.795  -0.792  -0.791  -0.768  -0.767  -0.755  -0.755
 -0.736  -0.729  -0.724  -0.721  -0.719  -0.718  -0.716  -0.711
 -0.709  -0.709  -0.709  -0.705  -0.691  -0.688  -0.687  -0.683
 -0.673  -0.671  -0.670  -0.669  -0.666  -0.664  -0.642  -0.641
 -0.637  -0.636  -0.625  -0.617  -0.616  -0.616  -0.616  -0.616
 -0.615  -0.609  -0.588  -0.587  -0.584  -0.574  -0.570  -0.566
 -0.562  -0.561  -0.555  -0.547  -0.543  -0.542  -0.536  -0.536
 -0.536  -0.532  -0.531  -0.530  -0.529  -0.524  -0.524  -0.522
 -0.521  -0.515  -0.512  -0.509  -0.505  -0.505  -0.504  -0.503
 -0.501  -0.500  -0.499  -0.498  -0.493  -0.492  -0.492  -0.490
 -0.490  -0.489  -0.489  -0.488  -0.484  -0.481  -0.481  -0.481
 -0.480  -0.479  -0.479  -0.478  -0.476  -0.475  -0.474  -0.473
 -0.472  -0.471  -0.471  -0.466  -0.465  -0.459  -0.455  -0.450
 -0.450  -0.449  -0.448  -0.448  -0.447  -0.446  -0.445  -0.440
 -0.438  -0.437  -0.436  -0.435  -0.433  -0.431  -0.430  -0.429
 -0.428  -0.425  -0.425  -0.423  -0.423  -0.421  -0.421  -0.418
 -0.417  -0.417  -0.412  -0.412  -0.411  -0.410  -0.410  -0.407
 -0.407  -0.406  -0.404  -0.398  -0.397  -0.396  -0.395  -0.393
 -0.392  -0.391  -0.389  -0.387  -0.385  -0.381  -0.378  -0.378
 -0.373  -0.372  -0.372  -0.369  -0.368  -0.368  -0.365  -0.360
 -0.356  -0.350  -0.343  -0.335  -0.334  -0.331  -0.326  -0.324
 -0.301  -0.301  -0.291  -0.291  -0.290  -0.286  -0.286  -0.285
 -0.283  -0.281  -0.281  -0.279  -0.272  -0.258  -0.258  -0.254
 -0.224  -0.224

 Beta MOs
 -- Occupied --
-14.678 -14.677 -10.495 -10.495 -10.494 -10.494 -10.486 -10.485
-10.474 -10.474 -10.473 -10.473 -10.469 -10.469 -10.469 -10.469
-10.468 -10.468 -10.468 -10.468 -10.468 -10.468 -10.462 -10.462
-10.461 -10.461 -10.458 -10.458 -10.458 -10.458 -10.458 -10.457
-10.457 -10.456 -10.453 -10.452 -10.452 -10.452 -10.452 -10.452
-10.452 -10.452 -10.450 -10.450 -10.450 -10.450 -10.449 -10.449
-10.449 -10.449 -10.445 -10.445 -10.444 -10.444 -10.444 -10.444
-10.444 -10.444 -10.444 -10.444 -10.443 -10.443 -10.441 -10.441
-10.441 -10.441 -10.438 -10.438 -10.438 -10.437 -10.437 -10.437
-10.437 -10.436 -10.436 -10.436 -10.436 -10.436 -10.434 -10.433
-10.432 -10.432 -10.431 -10.430 -10.423 -10.423 -10.423 -10.423
-10.423 -10.423 -10.422 -10.421  -6.956  -6.955  -1.091  -1.090
 -1.005  -1.005  -0.974  -0.974  -0.965  -0.965  -0.963  -0.961
 -0.961  -0.959  -0.953  -0.952  -0.910  -0.909  -0.908  -0.905
 -0.895  -0.894  -0.884  -0.882  -0.880  -0.875  -0.870  -0.869
 -0.852  -0.852  -0.852  -0.852  -0.837  -0.837  -0.830  -0.827
 -0.824  -0.822  -0.822  -0.816  -0.816  -0.812  -0.807  -0.806
 -0.796  -0.795  -0.792  -0.791  -0.768  -0.767  -0.755  -0.755
 -0.736  -0.729  -0.724  -0.721  -0.719  -0.718  -0.716  -0.711
 -0.709  -0.709  -0.709  -0.705  -0.691  -0.688  -0.687  -0.683
 -0.673  -0.671  -0.670  -0.669  -0.666  -0.664  -0.642  -0.641
 -0.637  -0.636  -0.625  -0.617  -0.616  -0.616  -0.616  -0.616
 -0.615  -0.609  -0.588  -0.587  -0.584  -0.574  -0.570  -0.566
 -0.562  -0.561  -0.555  -0.547  -0.543  -0.542  -0.536  -0.536
 -0.536  -0.532  -0.531  -0.530  -0.529  -0.524  -0.524  -0.522
 -0.521  -0.515  -0.512  -0.509  -0.505  -0.505  -0.504  -0.503
 -0.501  -0.500  -0.499  -0.498  -0.493  -0.492  -0.492  -0.490
 -0.490  -0.489  -0.489  -0.488  -0.484  -0.481  -0.481  -0.481
 -0.480  -0.479  -0.479  -0.478  -0.476  -0.475  -0.474  -0.473
 -0.472  -0.471  -0.471  -0.466  -0.465  -0.459  -0.455  -0.450
 -0.450  -0.449  -0.448  -0.448  -0.447  -0.446  -0.445  -0.440
 -0.438  -0.437  -0.436  -0.435  -0.433  -0.431  -0.430  -0.429
 -0.428  -0.425  -0.425  -0.423  -0.423  -0.421  -0.421  -0.418
 -0.417  -0.417  -0.412  -0.412  -0.411  -0.410  -0.410  -0.407
 -0.407  -0.406  -0.404  -0.398  -0.397  -0.396  -0.395  -0.393
 -0.392  -0.391  -0.389  -0.387  -0.385  -0.381  -0.378  -0.378
 -0.373  -0.372  -0.372  -0.369  -0.368  -0.368  -0.365  -0.360
 -0.356  -0.350  -0.343  -0.335  -0.334  -0.331  -0.326  -0.324
 -0.301  -0.301  -0.291  -0.291  -0.290  -0.286  -0.286  -0.285
 -0.283  -0.281  -0.281  -0.279  -0.272  -0.258  -0.258  -0.254
 -0.224  -0.224

          Ground-State Mulliken Net Atomic Charges

     Atom                 Charge (a.u.)    Spin (a.u.)
  --------------------------------------------------------
      1 N                    -0.717397       0.000000
      2 C                     0.311666       0.000000
      3 C                     0.307188       0.000000
      4 C                     0.126588       0.000000
      5 C                    -0.314891      -0.000000
      6 H                     0.239007      -0.000000
      7 C                    -0.259613       0.000000
      8 H                     0.238361       0.000000
      9 C                    -0.260343       0.000000
     10 H                     0.247607       0.000000
     11 C                    -0.331161      -0.000000
     12 H                     0.266372      -0.000000
     13 C                     0.127143      -0.000000
     14 C                    -0.315599      -0.000000
     15 H                     0.239233      -0.000000
     16 C                    -0.258101       0.000000
     17 H                     0.238868      -0.000000
     18 C                    -0.264199       0.000000
     19 H                     0.248343       0.000000
     20 C                    -0.332937      -0.000000
     21 H                     0.262882      -0.000000
     22 C                     0.194818       0.000000
     23 C                    -0.306825       0.000000
     24 H                     0.247281      -0.000000
     25 C                    -0.310554       0.000000
     26 H                     0.245397      -0.000000
     27 C                     0.045404      -0.000000
     28 C                     0.069927      -0.000000
     29 C                    -0.223420      -0.000000
     30 C                    -0.547388       0.000000
     31 H                     0.246387      -0.000000
     32 H                     0.252342      -0.000000
     33 C                    -0.560169      -0.000000
     34 H                     0.264301       0.000000
     35 H                     0.249413      -0.000000
     36 C                    -0.198638       0.000000
     37 C                    -0.656551      -0.000000
     38 H                     0.231484       0.000000
     39 H                     0.233955      -0.000000
     40 H                     0.224623       0.000000
     41 C                    -0.657339      -0.000000
     42 H                     0.236844       0.000000
     43 H                     0.230340      -0.000000
     44 H                     0.225672       0.000000
     45 C                    -0.618131       0.000000
     46 H                     0.232481       0.000000
     47 H                     0.229417      -0.000000
     48 H                     0.229412       0.000000
     49 C                    -0.622413      -0.000000
     50 H                     0.233502       0.000000
     51 H                     0.230209      -0.000000
     52 H                     0.229979       0.000000
     53 B                     0.647678       0.000000
     54 C                    -0.112584      -0.000000
     55 C                    -0.426615      -0.000000
     56 H                     0.253121       0.000000
     57 C                     0.094615      -0.000000
     58 C                     0.101662       0.000000
     59 C                    -0.422976      -0.000000
     60 H                     0.253320      -0.000000
     61 C                    -0.113476       0.000000
     62 C                     0.108783      -0.000000
     63 C                     0.068083       0.000000
     64 C                    -0.332472       0.000000
     65 H                     0.243237       0.000000
     66 C                    -0.279695       0.000000
     67 H                     0.246041      -0.000000
     68 C                     0.125621      -0.000000
     69 C                    -0.409332      -0.000000
     70 H                     0.241720       0.000000
     71 C                     0.107804      -0.000000
     72 C                    -0.410519       0.000000
     73 H                     0.241564       0.000000
     74 C                     0.124923       0.000000
     75 C                    -0.279857      -0.000000
     76 H                     0.245875      -0.000000
     77 C                    -0.332251       0.000000
     78 H                     0.243487      -0.000000
     79 C                     0.069428       0.000000
     80 C                    -0.725935       0.000000
     81 H                     0.247506      -0.000000
     82 H                     0.242860      -0.000000
     83 H                     0.248285      -0.000000
     84 C                    -0.726252       0.000000
     85 H                     0.247072      -0.000000
     86 H                     0.243297      -0.000000
     87 H                     0.248531       0.000000
     88 C                    -0.113876      -0.000000
     89 C                    -0.434476      -0.000000
     90 H                     0.255244      -0.000000
     91 C                     0.099073      -0.000000
     92 C                     0.098250       0.000000
     93 C                    -0.433509      -0.000000
     94 H                     0.256281       0.000000
     95 C                    -0.111588      -0.000000
     96 C                     0.106459       0.000000
     97 C                    -0.408142      -0.000000
     98 H                     0.241223      -0.000000
     99 C                     0.126084       0.000000
    100 C                    -0.280170      -0.000000
    101 H                     0.246016      -0.000000
    102 C                    -0.333014       0.000000
    103 H                     0.243254       0.000000
    104 C                     0.069810      -0.000000
    105 C                     0.108868       0.000000
    106 C                     0.067673      -0.000000
    107 C                    -0.332982       0.000000
    108 H                     0.242923      -0.000000
    109 C                    -0.281260      -0.000000
    110 H                     0.246212      -0.000000
    111 C                     0.130254       0.000000
    112 C                    -0.409750       0.000000
    113 H                     0.241709       0.000000
    114 C                    -0.723165       0.000000
    115 H                     0.244410       0.000000
    116 H                     0.245400      -0.000000
    117 H                     0.246475       0.000000
    118 C                    -0.728238       0.000000
    119 H                     0.247592       0.000000
    120 H                     0.245405      -0.000000
    121 H                     0.246433      -0.000000
    122 B                     0.647264       0.000000
    123 C                    -0.211310      -0.000000
    124 C                     0.070221      -0.000000
    125 C                    -0.318056       0.000000
    126 H                     0.244883      -0.000000
    127 C                     0.188653       0.000000
    128 C                    -0.306604      -0.000000
    129 H                     0.247588      -0.000000
    130 C                     0.046915       0.000000
    131 N                    -0.711605       0.000000
    132 C                     0.307851      -0.000000
    133 C                     0.304986      -0.000000
    134 C                     0.127500      -0.000000
    135 C                    -0.317708       0.000000
    136 H                     0.238526      -0.000000
    137 C                    -0.259343       0.000000
    138 H                     0.238283       0.000000
    139 C                    -0.259891      -0.000000
    140 H                     0.247634       0.000000
    141 C                    -0.329084      -0.000000
    142 H                     0.267529      -0.000000
    143 C                     0.128507       0.000000
    144 C                    -0.317898      -0.000000
    145 H                     0.238718      -0.000000
    146 C                    -0.258449       0.000000
    147 H                     0.238634       0.000000
    148 C                    -0.262484      -0.000000
    149 H                     0.245203       0.000000
    150 C                    -0.326905      -0.000000
    151 H                     0.264062      -0.000000
    152 C                    -0.548416      -0.000000
    153 H                     0.246703       0.000000
    154 H                     0.252941       0.000000
    155 C                    -0.559817       0.000000
    156 H                     0.260677      -0.000000
    157 H                     0.249125      -0.000000
    158 C                    -0.196343       0.000000
    159 C                    -0.659283       0.000000
    160 H                     0.236662      -0.000000
    161 H                     0.231922      -0.000000
    162 H                     0.224505      -0.000000
    163 C                    -0.661991      -0.000000
    164 H                     0.242572      -0.000000
    165 H                     0.225737       0.000000
    166 H                     0.230376       0.000000
    167 C                    -0.614901      -0.000000
    168 H                     0.232041      -0.000000
    169 H                     0.228750      -0.000000
    170 H                     0.229070       0.000000
    171 C                    -0.629531      -0.000000
    172 H                     0.231634       0.000000
    173 H                     0.231100      -0.000000
    174 H                     0.234643       0.000000
  --------------------------------------------------------
  Sum of atomic charges =     0.000000

                    Cartesian Multipole Moments
 -----------------------------------------------------------------
    Charge (ESU x 10^10)
                 0.0000
    Dipole Moment (Debye)
         X      -0.1025      Y      -0.1392      Z       0.2457
       Tot       0.3004
    Quadrupole Moments (Debye-Ang)
        XX    -490.7910     XY     -21.1479     YY    -550.7783
        XZ     -13.9940     YZ       8.9948     ZZ    -478.0262

 Total job time:  5852.79s(wall), 43137.10s(cpu)
        *  Thank you very much for using Q-Chem.  Have a nice day.  *
 Q-Chem 5.1, Q-Chem, Inc., Pleasanton, CA (2018)
 Q-Chem 5.1.1 for Intel X86 EM64T Linux

User input:
--------------------------------------------------------------

$rem
threads 8
jobtype opt
method PBEh-3c
basis def2-mSVP
scf_guess	read
mem_static      1024
mem_total       8000
sym_ignore      true
unrestricted true
mom_start       1
scf_algorithm	diis
scf_max_cycles	250
solvent_method	pcm
geom_opt_tol_energy 25
geom_opt_tol_gradient 75
$end

$solvent
dielectric      8.93
$end
$pcm
theory iefpcm
HPoints 194
HeavyPoints 194
$end

$occupied
1 2 3 4 5 6 7 8 9 10 11 12 13 14 15 16 17 18 19 20 21 22 23 24 25 26 27 28 29 30 31 32 33 34 35 36 37 38 39 40 41 42 43 44 45 46 47 48 49 50 51 52 53 54 55 56 57 58 59 60 61 62 63 64 65 66 67 68 69 70 71 72 73 74 75 76 77 78 79 80 81 82 83 84 85 86 87 88 89 90 91 92 93 94 95 96 97 98 99 100 101 102 103 104 105 106 107 108 109 110 111 112 113 114 115 116 117 118 119 120 121 122 123 124 125 126 127 128 129 130 131 132 133 134 135 136 137 138 139 140 141 142 143 144 145 146 147 148 149 150 151 152 153 154 155 156 157 158 159 160 161 162 163 164 165 166 167 168 169 170 171 172 173 174 175 176 177 178 179 180 181 182 183 184 185 186 187 188 189 190 191 192 193 194 195 196 197 198 199 200 201 202 203 204 205 206 207 208 209 210 211 212 213 214 215 216 217 218 219 220 221 222 223 224 225 226 227 228 229 230 231 232 233 234 235 236 237 238 239 240 241 242 243 244 245 246 247 248 249 250 251 252 253 254 255 256 257 258 259 260 261 262 263 264 265 266 267 268 269 270 271 272 273 274 275 276 277 278 279 280 281 282 283 284 285 286 287 288 289 290 291 292 293 294 295 296 297 298 299 300 301 302 303 304 305 306 307 308 309 310 311 312 313 314 315 316 317 318 319 320 321  323
1 2 3 4 5 6 7 8 9 10 11 12 13 14 15 16 17 18 19 20 21 22 23 24 25 26 27 28 29 30 31 32 33 34 35 36 37 38 39 40 41 42 43 44 45 46 47 48 49 50 51 52 53 54 55 56 57 58 59 60 61 62 63 64 65 66 67 68 69 70 71 72 73 74 75 76 77 78 79 80 81 82 83 84 85 86 87 88 89 90 91 92 93 94 95 96 97 98 99 100 101 102 103 104 105 106 107 108 109 110 111 112 113 114 115 116 117 118 119 120 121 122 123 124 125 126 127 128 129 130 131 132 133 134 135 136 137 138 139 140 141 142 143 144 145 146 147 148 149 150 151 152 153 154 155 156 157 158 159 160 161 162 163 164 165 166 167 168 169 170 171 172 173 174 175 176 177 178 179 180 181 182 183 184 185 186 187 188 189 190 191 192 193 194 195 196 197 198 199 200 201 202 203 204 205 206 207 208 209 210 211 212 213 214 215 216 217 218 219 220 221 222 223 224 225 226 227 228 229 230 231 232 233 234 235 236 237 238 239 240 241 242 243 244 245 246 247 248 249 250 251 252 253 254 255 256 257 258 259 260 261 262 263 264 265 266 267 268 269 270 271 272 273 274 275 276 277 278 279 280 281 282 283 284 285 286 287 288 289 290 291 292 293 294 295 296 297 298 299 300 301 302 303 304 305 306 307 308 309 310 311 312 313 314 315 316 317 318 319 320 321 322
$end

$molecule
read
$end

--------------------------------------------------------------

             Standard Nuclear Orientation (Angstroms)
    I     Atom           X                Y                Z
 ----------------------------------------------------------------
    1      N       0.0000000000     0.0000000000     0.0000000000
    2      C       0.0000000000     0.0000000000     1.3898880000
    3      C       1.1824133105     0.0000000000    -0.7319004359
    4      C       2.4220422322    -0.0558160957    -0.0865068960
    5      C       3.5735767662    -0.0572642716    -0.8675330300
    6      H       4.5380737417    -0.1062589292    -0.3772216716
    7      C       3.5392408355     0.0022779007    -2.2479248989
    8      H       4.4574557028     0.0048132476    -2.8193285552
    9      C       2.3066422034     0.0610048060    -2.8764066201
   10      H       2.2416366791     0.1155164709    -3.9554046089
   11      C       1.1435021536     0.0533041830    -2.1317796504
   12      H       0.1948927037     0.0976586866    -2.6467651616
   13      C       1.2018761969    -0.0586361527     2.1038687255
   14      C       1.1433756662    -0.0677658226     3.4932326906
   15      H       2.0684379149    -0.1201655962     4.0541230970
   16      C      -0.0497361700    -0.0161732416     4.1892401304
   17      H      -0.0540074353    -0.0276554380     5.2705857355
   18      C      -1.2323875093     0.0509656731     3.4715989555
   19      H      -2.1835665425     0.0945027777     3.9866540983
   20      C      -1.2105648365     0.0608274924     2.0908256077
   21      H      -2.1448664551     0.1141497501     1.5504248308
   22      C      -1.2360183662     0.0541015485    -0.6985221697
   23      C      -1.7251516382     1.2720190037    -1.1346831729
   24      H      -1.1622723030     2.1739692296    -0.9194421500
   25      C      -1.9385045357    -1.1079541426    -0.9679313141
   26      H      -1.5444435320    -2.0563568299    -0.6196722030
   27      C      -2.9027342183     1.3401471817    -1.8667379594
   28      C      -3.1342429037    -1.0605160147    -1.6755890467
   29      C      -3.6234276958     0.1684467768    -2.1383950275
   30      C      -3.9103350418    -2.3327688196    -1.8845758202
   31      H      -3.2175641266    -3.1675649032    -2.0176896378
   32      H      -4.4936912128    -2.2784066797    -2.8080272471
   33      C      -3.3222645887     2.6791064365    -2.4178874557
   34      H      -4.3904908059     2.6896566005    -2.6462842249
   35      H      -3.1784301731     3.4484156244    -1.6543798100
   36      C       2.5603079385    -0.1204880305     1.4244946018
   37      C      -4.8403313910    -2.6286006046    -0.7097844196
   38      H      -5.3828892228    -3.5618978118    -0.8619985811
   39      H      -5.5767991202    -1.8350904549    -0.5806567837
   40      H      -4.2794266336    -2.7148952140     0.2216159703
   41      C      -2.5305378188     3.0531607685    -3.6698497716
   42      H      -2.6766342202     2.3210593840    -4.4646571749
   43      H      -2.8412632979     4.0257640435    -4.0528900742
   44      H      -1.4615216650     3.1037342186    -3.4595516767
   45      C       3.2545781393    -1.4394534643     1.8074868959
   46      H       2.6705381900    -2.2975291183     1.4756084307
   47      H       3.3852292932    -1.5202766218     2.8875473210
   48      H       4.2440678824    -1.5118130377     1.3537578535
   49      C       3.4172105275     1.0654127991     1.9018346813
   50      H       2.9539344054     2.0139699696     1.6318197448
   51      H       3.5492042915     1.0523723815     2.9841547946
   52      H       4.4134076101     1.0410930935     1.4590586717
   53      B      -4.9245286881     0.2849255869    -3.0133135131
   54      C      -4.8408749357     0.0590341319    -4.5440400368
   55      C      -3.6673735416    -0.3775019340    -5.1230635442
   56      H      -2.8365719838    -0.5935878513    -4.4657324064
   57      C      -3.4998898763    -0.5123313697    -6.5083468156
   58      C      -4.5730678197    -0.1609790506    -7.3478079983
   59      C      -5.7589346916     0.2989783981    -6.7526628587
   60      H      -6.5770916656     0.6198801864    -7.3821534630
   61      C      -5.9262278623     0.4049457456    -5.3849084434
   62      C      -2.2359265868    -0.9551359305    -7.0741279856
   63      C      -2.0717813355    -0.9825489780    -8.4685151648
   64      C      -0.8244580369    -1.3794031506    -8.9775706140
   65      H      -0.6529094165    -1.4063118161   -10.0436643692
   66      C       0.2093123376    -1.7450538549    -8.1540382927
   67      H       1.1563717614    -2.0448524564    -8.5871020869
   68      C       0.0538258026    -1.7405383042    -6.7631665675
   69      C      -1.1621447026    -1.3449119510    -6.2549109158
   70      H      -1.2758551436    -1.3475971144    -5.1795545276
   71      C      -4.4172768216    -0.2368135386    -8.7921855101
   72      C      -5.4766959162     0.0753509405    -9.6600197372
   73      H      -6.4404223005     0.3522030747    -9.2547095455
   74      C      -5.3492225751     0.0372946297   -11.0299153756
   75      C      -4.1056427520    -0.3235007374   -11.5606283738
   76      H      -3.9689795393    -0.3562961449   -12.6350230387
   77      C      -3.0564356095    -0.6428287086   -10.7370955760
   78      H      -2.1188784094    -0.9204947471   -11.1963099292
   79      C      -3.1792360878    -0.6175291901    -9.3390986538
   80      C      -6.4992480910     0.3588739422   -11.9353782340
   81      H      -7.3759409567     0.6890945722   -11.3796891982
   82      H      -6.2406101085     1.1497327350   -12.6413643526
   83      H      -6.7914672622    -0.5121643593   -12.5246117018
   84      C       1.1815148321    -2.1630068338    -5.8697310172
   85      H       0.9357143345    -2.0410630150    -4.8154241317
   86      H       2.0837586030    -1.5814570513    -6.0671033246
   87      H       1.4382044033    -3.2121120223    -6.0271623151
   88      C      -6.2680488495     0.7528657895    -2.3978221199
   89      C      -6.3838846066     0.9476014085    -1.0379313702
   90      H      -5.5190284302     0.7180627872    -0.4314113395
   91      C      -7.5431135533     1.4538697368    -0.4321222496
   92      C      -8.6470954621     1.7544604266    -1.2505031030
   93      C      -8.5175351170     1.5670013414    -2.6376617394
   94      H      -9.3353501430     1.8379462484    -3.2910767526
   95      C      -7.3655458677     1.0862586282    -3.2291634356
   96      C      -9.8646549790     2.2824564497    -0.6570813622
   97      C     -10.9930123201     2.5685458247    -1.4417101208
   98      H     -10.9662205815     2.3845238290    -2.5066535499
   99      C     -12.1538881026     3.0826798117    -0.9124628379
  100      C     -12.1943601730     3.3196346481     0.4662608635
  101      H     -13.0929893267     3.7241389492     0.9165063358
  102      C     -11.1075310821     3.0460600674     1.2574905343
  103      H     -11.1890659769     3.2450085464     2.3161466049
  104      C      -9.9177495656     2.5244656881     0.7265539908
  105      C      -7.5959138910     1.7079214275     0.9983205155
  106      C      -8.7623059190     2.2448286784     1.5658367860
  107      C      -8.7626557223     2.5063902712     2.9456533949
  108      H      -9.6371949783     2.9255730498     3.4210283738
  109      C      -7.6669125607     2.2536839924     3.7311962187
  110      H      -7.7069385881     2.4766817503     4.7907739699
  111      C      -6.4978636597     1.7200472061     3.1775904041
  112      C      -6.4893144305     1.4579675387     1.8271508102
  113      H      -5.5780790089     1.0553507974     1.4066459530
  114      C     -13.3427963336     3.3804333787    -1.7752996021
  115      H     -13.1275091962     3.2042093996    -2.8288438457
  116      H     -13.6571715278     4.4200225379    -1.6722851616
  117      H     -14.1956175457     2.7559783132    -1.5040341207
  118      C      -5.2986769441     1.4442109626     4.0347308486
  119      H      -4.4302782374     1.1750554021     3.4338014950
  120      H      -5.0260175307     2.3152607082     4.6320545809
  121      H      -5.4881981803     0.6229117027     4.7284897038
  122      B      -7.2205973434     1.0073781387    -4.7726086145
  123      C      -8.2849402736     1.6414502383    -5.7327701696
  124      C      -9.1749475226     0.8487125096    -6.4700113117
  125      C     -10.0170768757     1.4410040327    -7.4047450723
  126      H     -10.6990374955     0.8355368998    -7.9905538899
  127      C      -9.9850728902     2.8104368595    -7.6027882802
  128      C      -9.1289565664     3.5997217099    -6.8547166517
  129      H      -9.1206062754     4.6713887036    -7.0212284606
  130      C      -8.2694640071     3.0318443362    -5.9242472872
  131      N     -10.8080416586     3.4130858561    -8.5877343679
  132      C     -12.0749474781     3.8567896810    -8.2300444371
  133      C     -10.2559137579     3.6940583506    -9.8318283982
  134      C     -11.0217914674     4.3106086895   -10.8253053658
  135      C     -10.4186176201     4.5596055385   -12.0545880933
  136      H     -11.0013053010     5.0232449596   -12.8408016898
  137      C      -9.0990262815     4.2400048551   -12.3184415767
  138      H      -8.6665363090     4.4579253545   -13.2854332441
  139      C      -8.3479228271     3.6414233959   -11.3207578855
  140      H      -7.3087865781     3.3883364244   -11.4879894942
  141      C      -8.9187119855     3.3646087162   -10.0946266543
  142      H      -8.3102700833     2.9011059684    -9.3308534295
  143      C     -12.9043587541     4.4738702698    -9.1713662408
  144      C     -14.1681895766     4.8818139879    -8.7587001384
  145      H     -14.8289411393     5.3481785290    -9.4786263137
  146      C     -14.6191006147     4.7141443262    -7.4617554040
  147      H     -15.6086249558     5.0470741476    -7.1803067806
  148      C     -13.7795181218     4.1164427505    -6.5365159841
  149      H     -14.0996249009     3.9784935134    -5.5115439248
  150      C     -12.5221042464     3.6909567142    -6.9139725566
  151      H     -11.8782128983     3.2304513853    -6.1782336193
  152      C      -9.2619227901    -0.6351875613    -6.2273419935
  153      H      -9.6411351870    -1.1314099798    -7.1238028502
  154      H      -8.2659002643    -1.0520896638    -6.0536993140
  155      C      -7.2878483852     3.9279590924    -5.2087945856
  156      H      -7.0964237865     3.5651573627    -4.1966180657
  157      H      -7.7330639099     4.9184455132    -5.0866532196
  158      C     -12.4784976245     4.6878736891   -10.6154798485
  159      C     -10.1631390199    -0.9745509727    -5.0414597961
  160      H      -9.7770207070    -0.5499960867    -4.1145213302
  161      H     -10.2355399305    -2.0534999264    -4.9024623234
  162      H     -11.1713809558    -0.5869198869    -5.1908788898
  163      C      -5.9614055550     4.0660077228    -5.9560319699
  164      H      -5.4524289432     3.1071745323    -6.0529320180
  165      H      -6.1132575583     4.4623504109    -6.9604839303
  166      H      -5.2896632569     4.7436733037    -5.4275745848
  167      C     -13.3490403183     3.8062220003   -11.5251318658
  168      H     -13.2171873246     2.7519756556   -11.2816940035
  169      H     -13.0848288930     3.9434651910   -12.5747824604
  170      H     -14.4075857007     4.0461456209   -11.4140901920
  171      C     -12.6693935627     6.1687601173   -10.9839106850
  172      H     -13.7038008944     6.4855688062   -10.8541245030
  173      H     -12.4102434558     6.3583008347   -12.0253233535
  174      H     -12.0420043778     6.8061423502   -10.3611524708
 ----------------------------------------------------------------
