 Q-Chem 5.1, Q-Chem, Inc., Pleasanton, CA (2018)
 Q-Chem 5.1.1 for Intel X86 EM64T Linux

User input:
--------------------------------------------------------------
$rem
threads 8
jobtype	sp
method PBEh-3c
basis def2-mSVP
mem_static	1024
mem_total	8000
sym_ignore	true
unrestricted true
scf_convergence	9
solvent_method	pcm
$end

$molecule
read incoords.mol
$end

$solvent
dielectric	4.33
$end

$pcm
theory iefpcm
HPoints 194
HeavyPoints 194
$end
--------------------------------------------------------------

   16   -3629.2791765373      4.21e-10  Convergence criterion met
 Total energy in the final basis set =    -3629.2791765373
 Total job time:  4912.09s(wall), 37354.36s(cpu)
        *  Thank you very much for using Q-Chem.  Have a nice day.  *
 Q-Chem 5.1, Q-Chem, Inc., Pleasanton, CA (2018)
 Q-Chem 5.1.1 for Intel X86 EM64T Linux

User input:
--------------------------------------------------------------

$rem
threads 8
jobtype opt
method PBEh-3c
basis def2-mSVP
scf_guess	read
mem_static      1024
mem_total       8000
sym_ignore      true
unrestricted true
mom_start       1
scf_algorithm	diis
scf_max_cycles	250
solvent_method	pcm
geom_opt_tol_energy 25
geom_opt_tol_gradient 75
$end

$solvent
dielectric      4.33
$end

$pcm
theory iefpcm
HPoints 194
HeavyPoints 194
$end

$occupied
1 2 3 4 5 6 7 8 9 10 11 12 13 14 15 16 17 18 19 20 21 22 23 24 25 26 27 28 29 30 31 32 33 34 35 36 37 38 39 40 41 42 43 44 45 46 47 48 49 50 51 52 53 54 55 56 57 58 59 60 61 62 63 64 65 66 67 68 69 70 71 72 73 74 75 76 77 78 79 80 81 82 83 84 85 86 87 88 89 90 91 92 93 94 95 96 97 98 99 100 101 102 103 104 105 106 107 108 109 110 111 112 113 114 115 116 117 118 119 120 121 122 123 124 125 126 127 128 129 130 131 132 133 134 135 136 137 138 139 140 141 142 143 144 145 146 147 148 149 150 151 152 153 154 155 156 157 158 159 160 161 162 163 164 165 166 167 168 169 170 171 172 173 174 175 176 177 178 179 180 181 182 183 184 185 186 187 188 189 190 191 192 193 194 195 196 197 198 199 200 201 202 203 204 205 206 207 208 209 210 211 212 213 214 215 216 217 218 219 220 221 222 223 224 225 226 227 228 229 230 231 232 233 234 235 236 237 238 239 240 241 242 243 244 245 246 247 248 249 250 251 252 253 254 255 256 257 258 259 260 261 262 263 264 265 266 267 268 269 270 271 272 273 274 275 276 277 278 279 280 281 282 283 284 285 286 287 288 289 290 291 292 293 294 295 296 297 298 299 300 301 302 303 304 305 306 307 308 309 310 311 312 313 314 315 316 317 318 319 320 321  323
1 2 3 4 5 6 7 8 9 10 11 12 13 14 15 16 17 18 19 20 21 22 23 24 25 26 27 28 29 30 31 32 33 34 35 36 37 38 39 40 41 42 43 44 45 46 47 48 49 50 51 52 53 54 55 56 57 58 59 60 61 62 63 64 65 66 67 68 69 70 71 72 73 74 75 76 77 78 79 80 81 82 83 84 85 86 87 88 89 90 91 92 93 94 95 96 97 98 99 100 101 102 103 104 105 106 107 108 109 110 111 112 113 114 115 116 117 118 119 120 121 122 123 124 125 126 127 128 129 130 131 132 133 134 135 136 137 138 139 140 141 142 143 144 145 146 147 148 149 150 151 152 153 154 155 156 157 158 159 160 161 162 163 164 165 166 167 168 169 170 171 172 173 174 175 176 177 178 179 180 181 182 183 184 185 186 187 188 189 190 191 192 193 194 195 196 197 198 199 200 201 202 203 204 205 206 207 208 209 210 211 212 213 214 215 216 217 218 219 220 221 222 223 224 225 226 227 228 229 230 231 232 233 234 235 236 237 238 239 240 241 242 243 244 245 246 247 248 249 250 251 252 253 254 255 256 257 258 259 260 261 262 263 264 265 266 267 268 269 270 271 272 273 274 275 276 277 278 279 280 281 282 283 284 285 286 287 288 289 290 291 292 293 294 295 296 297 298 299 300 301 302 303 304 305 306 307 308 309 310 311 312 313 314 315 316 317 318 319 320 321 322
$end

$molecule
read
$end

--------------------------------------------------------------

   20   -3629.2035154466      7.96E-09 Convergence criterion met
 Total energy in the final basis set = -3629.20351545
   16   -3629.2796004043      7.89E-09 Convergence criterion met
 Total energy in the final basis set = -3629.27960040
   12   -3629.2780371196      8.09E-09 Convergence criterion met
 Total energy in the final basis set = -3629.27803712
   12   -3629.2810950834      8.00E-09 Convergence criterion met
 Total energy in the final basis set = -3629.28109508
   12   -3629.2846763852      8.15E-09 Convergence criterion met
 Total energy in the final basis set = -3629.28467639
   12   -3629.2831270550      9.89E-09 Convergence criterion met
 Total energy in the final basis set = -3629.28312705
   12   -3629.2850391220      8.81E-09 Convergence criterion met
   12   -3629.2859641345      5.98E-09 Convergence criterion met
 Total energy in the final basis set = -3629.28596413
   12   -3629.2859675254      5.99E-09 Convergence criterion met
 Total energy in the final basis set = -3629.28596753
   12   -3629.2859691766      6.19E-09 Convergence criterion met
 Total energy in the final basis set = -3629.28596918
   12   -3629.2859694575      7.93E-09 Convergence criterion met
 Total energy in the final basis set = -3629.28596946
   12   -3629.2859710367      7.92E-09 Convergence criterion met
 Total energy in the final basis set = -3629.28597104
   12   -3629.2859717562      7.30E-09 Convergence criterion met
 Total energy in the final basis set = -3629.28597176

             Standard Nuclear Orientation (Angstroms)
    I     Atom           X                Y                Z
 ----------------------------------------------------------------
    1      N      -0.0094248815    -0.1030040081    -0.0272267707
    2      C       0.0442252478    -0.1648528710     1.3647470979
    3      C       1.1672015913    -0.2226040577    -0.7655055680
    4      C      -0.9247944160     0.4592095468     2.1499945698
    5      H      -1.7538855229     0.9739336990     1.6831289111
    6      C      -0.8211194517     0.4348472959     3.5304722576
    7      H      -1.5792313794     0.9251847296     4.1281684343
    8      C       0.2532868950    -0.1949326210     4.1385931534
    9      H       0.3481029120    -0.2037414298     5.2162543198
   10      C       1.2008758473    -0.8355392579     3.3522303922
   11      H       2.0187168531    -1.3478885963     3.8402046712
   12      C       1.1016590715    -0.8589927282     1.9676276337
   13      C       1.2835016724     0.3351012785    -2.0397855240
   14      H       0.4463269811     0.8499541541    -2.4909604990
   15      C       2.4775027371     0.2434393244    -2.7347222323
   16      H       2.5512057727     0.6841944522    -3.7208971724
   17      C       3.5700402363    -0.3913496255    -2.1666012550
   18      H       4.5095393946    -0.4544094218    -2.6993588753
   19      C       3.4411548875    -0.9677990466    -0.9109333326
   20      H       4.2903692928    -1.4889996347    -0.4907045941
   21      C       2.2456666521    -0.9197688429    -0.2057152619
   22      C      -1.2378810019     0.1772289917    -0.6856428788
   23      C      -2.0708618764    -0.8824606081    -1.0061035829
   24      H      -1.7765359985    -1.8903477790    -0.7341596524
   25      C      -1.6100804462     1.4696162416    -1.0225354378
   26      H      -0.9604424663     2.2988657032    -0.7634756592
   27      C      -3.2680059912    -0.6688571031    -1.6775504939
   28      C      -2.8003661386     1.7051903310    -1.7047176854
   29      C      -3.6344420352     0.6324586806    -2.0444773925
   30      C      -3.1343875102     3.1112103754    -2.1292711594
   31      H      -4.2166702486     3.2317060815    -2.2296963078
   32      H      -2.8283249158     3.8121964255    -1.3487576935
   33      C      -4.1666912299    -1.8457918366    -1.9602570635
   34      H      -4.7973613966    -1.6481930561    -2.8316887167
   35      H      -3.5596239306    -2.7146352835    -2.2262324218
   36      C       1.9951127820    -1.6982683271     1.0713739279
   37      C       3.2893205922    -2.1150576705     1.7616079529
   38      H       3.8843429563    -2.7586095256     1.1135998421
   39      H       3.0818552414    -2.6983487049     2.6582975949
   40      H       3.8994270506    -1.2561671959     2.0441707337
   41      C      -5.0541992165    -2.1975372894    -0.7677591976
   42      H      -5.7030070752    -1.3639314083    -0.4978125027
   43      H      -5.6914562546    -3.0521525902    -0.9972091456
   44      H      -4.4552426331    -2.4517314114     0.1074904074
   45      C      -2.4558170550     3.4925546082    -3.4437682565
   46      H      -2.7639452317     2.8323953051    -4.2549829844
   47      H      -2.7084520498     4.5134296954    -3.7318870567
   48      H      -1.3702540249     3.4283158267    -3.3576468519
   49      C       1.2217600123    -2.9807688063     0.6943301989
   50      H       0.2768278617    -2.7577232908     0.1989941105
   51      H       0.9996817371    -3.5675581707     1.5875332890
   52      H       1.8162728912    -3.5959971505     0.0164747621
   53      B      -4.9459731627     0.8633988254    -2.8803903945
   54      C      -4.9221629581     0.6656041186    -4.4218258556
   55      C      -3.7666086880     0.2761386448    -5.0712124903
   56      H      -2.8766316845     0.1473510546    -4.4713606841
   57      C      -3.7070728533     0.0390020175    -6.4556154821
   58      C      -4.8806005833     0.2120293317    -7.2118285423
   59      C      -6.0451405227     0.6290911170    -6.5488165844
   60      H      -6.9524688203     0.7837885807    -7.1157289025
   61      C      -6.0990762373     0.8537848221    -5.1888448678
   62      C      -2.4760566294    -0.3769945188    -7.1102449993
   63      C      -1.2938554126    -0.5858118742    -6.3803035173
   64      H      -1.2910425342    -0.4493402733    -5.3076401151
   65      C      -0.1139619524    -0.9728294871    -6.9756059640
   66      C      -0.1097616877    -1.1538679444    -8.3642309634
   67      H       0.8030011855    -1.4547790352    -8.8646799689
   68      C      -1.2515281927    -0.9628112424    -9.1012914360
   69      H      -1.1963393385    -1.1220939523   -10.1685394678
   70      C      -2.4624041111    -0.5783510582    -8.5025456324
   71      C      -4.8764782759    -0.0349164593    -8.6458057542
   72      C      -3.6801834184    -0.4077888997    -9.2818484036
   73      C      -3.7106979506    -0.6233483730   -10.6702692233
   74      H      -2.8132110740    -0.9075603050   -11.2002507853
   75      C      -4.8675929170    -0.4909649752   -11.3973625388
   76      H      -4.8491796638    -0.6710355915   -12.4658021616
   77      C      -6.0702041662    -0.1372079534   -10.7733286526
   78      C      -6.0482642116     0.0836429618    -9.4141402163
   79      H      -6.9832671113     0.3476430201    -8.9391937423
   80      C       1.1326507721    -1.1947171043    -6.1740663857
   81      H       0.9465079346    -1.1025055508    -5.1048021317
   82      H       1.5461145953    -2.1878048824    -6.3553417685
   83      H       1.9061632050    -0.4719940176    -6.4407695222
   84      C      -7.3334649874     0.0027881030   -11.5690285178
   85      H      -8.2058737946     0.1022277297   -10.9238256913
   86      H      -7.4940000893    -0.8611869929   -12.2149596374
   87      H      -7.2964434796     0.8830648240   -12.2142400764
   88      B      -7.4282159750     1.2850014875    -4.5158330680
   89      C      -7.4497677555     1.4758897432    -2.9757232318
   90      C      -8.6136620210     1.8378653029    -2.3304823863
   91      H      -9.4911078852     1.9997992799    -2.9408137450
   92      C      -8.7063305478     1.9759372472    -0.9362011998
   93      C      -7.5676700582     1.6982113845    -0.1600487581
   94      C      -6.3736731250     1.3693358143    -0.8259916878
   95      H      -5.4754146077     1.1882480567    -0.2520863239
   96      C      -6.2839787301     1.2561901162    -2.1996884339
   97      C      -7.6522794045     1.7340697506     1.2913738028
   98      C      -6.5494830867     1.3978197339     2.0935392590
   99      H      -5.6144195854     1.1148104659     1.6303307226
  100      C      -6.6061974003     1.3957581462     3.4688832257
  101      C      -7.8205254906     1.7449037259     4.0731598906
  102      H      -7.9020998426     1.7497553065     5.1536244336
  103      C      -8.9152014989     2.0751226169     3.3132038832
  104      H      -9.8300811328     2.3293337890     3.8289595843
  105      C      -8.8675161841     2.0790706152     1.9094221438
  106      C      -9.9499225431     2.3787951617    -0.2997078570
  107      C     -11.0771003774     2.7371946302    -1.0592827247
  108      H     -11.0250033773     2.7309645748    -2.1394658389
  109      C     -12.2681668847     3.1192709388    -0.4841427214
  110      C     -12.3385843545     3.1467193357     0.9143343902
  111      H     -13.2606738892     3.4431133215     1.4002416878
  112      C     -11.2498707683     2.8114471409     1.6803552793
  113      H     -11.3556754380     2.8592871296     2.7545384756
  114      C     -10.0291519452     2.4243351184     1.1022080129
  115      C      -5.4134571635     1.0295986416     4.2993590312
  116      H      -4.5712555080     0.7251235157     3.6785213428
  117      H      -5.6414159501     0.2061130319     4.9777159478
  118      H      -5.0880501000     1.8709644339     4.9136691519
  119      C     -13.4568827068     3.4933349042    -1.3176014478
  120      H     -13.2114379803     3.5217277071    -2.3787689436
  121      H     -13.8438591671     4.4745343143    -1.0393429352
  122      H     -14.2715864981     2.7787190301    -1.1841428509
  123      C      -8.7375007067     1.4829934502    -5.3669294370
  124      C      -9.5304720016     0.3729563771    -5.6903732172
  125      C     -10.6902290498     0.5472436928    -6.4355459188
  126      H     -11.3056654643    -0.3081692009    -6.6938417819
  127      C     -11.0831367491     1.8098659232    -6.8428734793
  128      C     -10.3085544960     2.9118505076    -6.5248040875
  129      H     -10.6222505507     3.8967858366    -6.8532995459
  130      C      -9.1309409199     2.7560746439    -5.8011921595
  131      N     -12.2840609349     1.9651205807    -7.5885806190
  132      C     -13.4983570032     1.9993837332    -6.9125432410
  133      C     -12.2202216358     1.9834505479    -8.9764023542
  134      C     -13.3867400856     2.0597397836    -9.7456142670
  135      C     -13.2625803248     2.0837261338   -11.1316584284
  136      H     -14.1599832654     2.1406954493   -11.7352832852
  137      C     -12.0379937953     2.0328981733   -11.7731278969
  138      H     -11.9840178238     2.0554676692   -12.8532743315
  139      C     -10.8896782807     1.9490460457   -11.0016806176
  140      H      -9.9147089343     1.9043566922   -11.4700206012
  141      C     -10.9777177778     1.9208185689    -9.6228228208
  142      H     -10.0683163702     1.8507490992    -9.0429922567
  143      C     -14.7075837074     2.0650454878    -7.6152534509
  144      C     -15.8933248806     2.0937291147    -6.8872340995
  145      H     -16.8337269308     2.1419983467    -7.4225975563
  146      C     -15.9207116134     2.0576669811    -5.5046751038
  147      H     -16.8634880854     2.0778308498    -4.9746973929
  148      C     -14.7175698269     1.9956294267    -4.8195385131
  149      H     -14.7028070242     1.9651395588    -3.7376799011
  150      C     -13.5217445307     1.9703390497    -5.5118629421
  151      H     -12.5967038934     1.9213520667    -4.9549889093
  152      C      -8.2631537416     3.9624157190    -5.5613569582
  153      H      -7.6461900399     3.8212125630    -4.6696064122
  154      H      -8.8904083651     4.8337170654    -5.3576586830
  155      C      -9.1957358153    -1.0135476270    -5.2042933895
  156      H      -8.1248331248    -1.1095527662    -5.0066747190
  157      H      -9.4165646809    -1.7371425799    -5.9932398924
  158      C     -14.7768591292     2.0997087633    -9.1331452413
  159      C      -9.9814823718    -1.3838111616    -3.9479490455
  160      H      -9.7574016912    -0.7013803469    -3.1275396701
  161      H      -9.7362542645    -2.3937338072    -3.6181201157
  162      H     -11.0560157224    -1.3427362035    -4.1312744479
  163      C      -7.3636936555     4.2553316058    -6.7610808843
  164      H      -6.7065822976     3.4118329183    -6.9754310002
  165      H      -6.7366427415     5.1279912974    -6.5764872118
  166      H      -7.9565077120     4.4511809945    -7.6555697760
  167      C     -15.4897329000     3.3889040351    -9.5785030145
  168      H     -16.4993972966     3.4455429678    -9.1694074013
  169      H     -15.5801890400     3.4355850932   -10.6645639956
  170      H     -14.9425708831     4.2720888711    -9.2482849137
  171      C     -15.5753408927     0.8800717474    -9.6281815662
  172      H     -15.6710894828     0.8851780822   -10.7147519640
  173      H     -16.5847102181     0.8736637382    -9.2150501128
  174      H     -15.0868291158    -0.0503168384    -9.3379343935
 ----------------------------------------------------------------

   13   -3629.2859718784      5.25E-09 Convergence criterion met
 Total energy in the final basis set = -3629.28597188
 Final energy is   -3629.28597187837
 **  OPTIMIZATION CONVERGED  **

                    Orbital Energies (a.u.)
 --------------------------------------------------------------

 Alpha MOs
 -- Occupied --
-14.677 -14.674 -10.494 -10.494 -10.490 -10.490 -10.487 -10.486
-10.473 -10.473 -10.472 -10.472 -10.468 -10.468 -10.468 -10.468
-10.468 -10.467 -10.467 -10.467 -10.467 -10.467 -10.461 -10.461
-10.461 -10.461 -10.458 -10.458 -10.457 -10.457 -10.457 -10.456
-10.456 -10.456 -10.453 -10.453 -10.452 -10.452 -10.451 -10.451
-10.451 -10.451 -10.450 -10.450 -10.450 -10.449 -10.449 -10.449
-10.449 -10.449 -10.445 -10.444 -10.444 -10.444 -10.444 -10.444
-10.444 -10.444 -10.444 -10.444 -10.443 -10.443 -10.441 -10.441
-10.441 -10.441 -10.438 -10.438 -10.438 -10.437 -10.437 -10.437
-10.436 -10.436 -10.436 -10.436 -10.436 -10.435 -10.434 -10.433
-10.433 -10.433 -10.433 -10.431 -10.425 -10.424 -10.423 -10.423
-10.422 -10.422 -10.422 -10.422  -6.955  -6.954  -1.089  -1.087
 -1.004  -1.003  -0.974  -0.973  -0.964  -0.964  -0.962  -0.959
 -0.958  -0.958  -0.952  -0.950  -0.910  -0.908  -0.907  -0.904
 -0.895  -0.894  -0.883  -0.881  -0.879  -0.874  -0.870  -0.868
 -0.852  -0.852  -0.851  -0.848  -0.835  -0.834  -0.830  -0.827
 -0.822  -0.821  -0.821  -0.819  -0.815  -0.810  -0.806  -0.805
 -0.796  -0.795  -0.791  -0.791  -0.769  -0.766  -0.755  -0.754
 -0.735  -0.727  -0.722  -0.720  -0.718  -0.718  -0.716  -0.710
 -0.708  -0.708  -0.704  -0.703  -0.691  -0.689  -0.687  -0.682
 -0.672  -0.671  -0.670  -0.669  -0.666  -0.663  -0.641  -0.641
 -0.636  -0.636  -0.625  -0.617  -0.616  -0.616  -0.615  -0.615
 -0.610  -0.608  -0.587  -0.586  -0.583  -0.573  -0.569  -0.566
 -0.562  -0.561  -0.555  -0.547  -0.544  -0.541  -0.538  -0.536
 -0.535  -0.531  -0.530  -0.530  -0.529  -0.523  -0.523  -0.521
 -0.520  -0.515  -0.511  -0.509  -0.505  -0.504  -0.504  -0.502
 -0.500  -0.500  -0.499  -0.498  -0.494  -0.491  -0.491  -0.491
 -0.490  -0.489  -0.489  -0.488  -0.488  -0.485  -0.483  -0.480
 -0.480  -0.480  -0.479  -0.478  -0.475  -0.474  -0.473  -0.472
 -0.471  -0.470  -0.468  -0.466  -0.465  -0.459  -0.455  -0.450
 -0.449  -0.449  -0.448  -0.447  -0.445  -0.441  -0.440  -0.440
 -0.438  -0.436  -0.436  -0.435  -0.433  -0.430  -0.429  -0.429
 -0.427  -0.426  -0.425  -0.422  -0.421  -0.420  -0.418  -0.417
 -0.417  -0.416  -0.412  -0.411  -0.411  -0.410  -0.410  -0.406
 -0.406  -0.404  -0.403  -0.399  -0.398  -0.396  -0.395  -0.393
 -0.392  -0.391  -0.389  -0.387  -0.386  -0.381  -0.380  -0.377
 -0.373  -0.372  -0.371  -0.371  -0.368  -0.367  -0.362  -0.357
 -0.354  -0.349  -0.343  -0.335  -0.333  -0.330  -0.325  -0.323
 -0.300  -0.299  -0.290  -0.289  -0.289  -0.286  -0.284  -0.283
 -0.283  -0.281  -0.279  -0.278  -0.271  -0.257  -0.257  -0.253
 -0.229  -0.223

 Beta MOs
 -- Occupied --
-14.677 -14.674 -10.494 -10.494 -10.490 -10.490 -10.487 -10.486
-10.473 -10.473 -10.472 -10.472 -10.468 -10.468 -10.468 -10.468
-10.468 -10.467 -10.467 -10.467 -10.467 -10.467 -10.461 -10.461
-10.461 -10.461 -10.458 -10.458 -10.457 -10.457 -10.457 -10.456
-10.456 -10.456 -10.453 -10.453 -10.452 -10.452 -10.451 -10.451
-10.451 -10.451 -10.450 -10.450 -10.450 -10.449 -10.449 -10.449
-10.449 -10.449 -10.445 -10.444 -10.444 -10.444 -10.444 -10.444
-10.444 -10.444 -10.444 -10.444 -10.443 -10.443 -10.441 -10.441
-10.441 -10.441 -10.438 -10.438 -10.438 -10.437 -10.437 -10.437
-10.436 -10.436 -10.436 -10.436 -10.436 -10.435 -10.434 -10.433
-10.433 -10.433 -10.433 -10.431 -10.425 -10.424 -10.423 -10.423
-10.422 -10.422 -10.422 -10.422  -6.955  -6.954  -1.089  -1.087
 -1.004  -1.003  -0.974  -0.973  -0.964  -0.964  -0.962  -0.959
 -0.958  -0.958  -0.952  -0.950  -0.910  -0.908  -0.907  -0.904
 -0.895  -0.894  -0.883  -0.881  -0.879  -0.874  -0.870  -0.868
 -0.852  -0.852  -0.851  -0.848  -0.835  -0.834  -0.830  -0.827
 -0.822  -0.821  -0.821  -0.819  -0.815  -0.810  -0.806  -0.805
 -0.796  -0.795  -0.791  -0.791  -0.769  -0.766  -0.755  -0.754
 -0.735  -0.727  -0.722  -0.720  -0.718  -0.718  -0.716  -0.710
 -0.708  -0.708  -0.704  -0.703  -0.691  -0.689  -0.687  -0.682
 -0.672  -0.671  -0.670  -0.669  -0.666  -0.663  -0.641  -0.641
 -0.636  -0.636  -0.625  -0.617  -0.616  -0.616  -0.615  -0.615
 -0.610  -0.608  -0.587  -0.586  -0.583  -0.573  -0.569  -0.566
 -0.562  -0.561  -0.555  -0.547  -0.544  -0.541  -0.538  -0.536
 -0.535  -0.531  -0.530  -0.530  -0.529  -0.523  -0.523  -0.521
 -0.520  -0.515  -0.511  -0.509  -0.505  -0.504  -0.504  -0.502
 -0.500  -0.500  -0.499  -0.498  -0.494  -0.491  -0.491  -0.491
 -0.490  -0.489  -0.489  -0.488  -0.488  -0.485  -0.483  -0.480
 -0.480  -0.480  -0.479  -0.478  -0.475  -0.474  -0.473  -0.472
 -0.471  -0.470  -0.468  -0.466  -0.465  -0.459  -0.455  -0.450
 -0.449  -0.449  -0.448  -0.447  -0.445  -0.441  -0.440  -0.440
 -0.438  -0.436  -0.436  -0.435  -0.433  -0.430  -0.429  -0.429
 -0.427  -0.426  -0.425  -0.422  -0.421  -0.420  -0.418  -0.417
 -0.417  -0.416  -0.412  -0.411  -0.411  -0.410  -0.410  -0.406
 -0.406  -0.404  -0.403  -0.399  -0.398  -0.396  -0.395  -0.393
 -0.392  -0.391  -0.389  -0.387  -0.386  -0.381  -0.380  -0.377
 -0.373  -0.372  -0.371  -0.371  -0.368  -0.367  -0.362  -0.357
 -0.354  -0.349  -0.343  -0.335  -0.333  -0.330  -0.325  -0.323
 -0.300  -0.299  -0.290  -0.289  -0.289  -0.286  -0.284  -0.283
 -0.283  -0.281  -0.279  -0.278  -0.271  -0.257  -0.257  -0.253
 -0.229  -0.223

          Ground-State Mulliken Net Atomic Charges

     Atom                 Charge (a.u.)    Spin (a.u.)
  --------------------------------------------------------
      1 N                    -0.712749       0.000000
      2 C                     0.315393      -0.000000
      3 C                     0.314671      -0.000000
      4 C                    -0.307121       0.000000
      5 H                     0.254987       0.000000
      6 C                    -0.259912      -0.000000
      7 H                     0.237466       0.000000
      8 C                    -0.244074      -0.000000
      9 H                     0.233302       0.000000
     10 C                    -0.343095       0.000000
     11 H                     0.234732       0.000000
     12 C                     0.148609      -0.000000
     13 C                    -0.312854       0.000000
     14 H                     0.259379       0.000000
     15 C                    -0.256125      -0.000000
     16 H                     0.238576      -0.000000
     17 C                    -0.246495       0.000000
     18 H                     0.233277      -0.000000
     19 C                    -0.340873       0.000000
     20 H                     0.234983      -0.000000
     21 C                     0.146342      -0.000000
     22 C                     0.240858       0.000000
     23 C                    -0.323031      -0.000000
     24 H                     0.242663       0.000000
     25 C                    -0.339644      -0.000000
     26 H                     0.248862      -0.000000
     27 C                     0.064949       0.000000
     28 C                     0.058586       0.000000
     29 C                    -0.217396      -0.000000
     30 C                    -0.556157       0.000000
     31 H                     0.256791       0.000000
     32 H                     0.245397      -0.000000
     33 C                    -0.556130      -0.000000
     34 H                     0.259094      -0.000000
     35 H                     0.245581       0.000000
     36 C                    -0.219455      -0.000000
     37 C                    -0.674762      -0.000000
     38 H                     0.237091       0.000000
     39 H                     0.237715      -0.000000
     40 H                     0.240392       0.000000
     41 C                    -0.652955      -0.000000
     42 H                     0.236380      -0.000000
     43 H                     0.229092      -0.000000
     44 H                     0.223393       0.000000
     45 C                    -0.655960       0.000000
     46 H                     0.239785       0.000000
     47 H                     0.229612       0.000000
     48 H                     0.220863      -0.000000
     49 C                    -0.618448      -0.000000
     50 H                     0.243665      -0.000000
     51 H                     0.227073      -0.000000
     52 H                     0.227245       0.000000
     53 B                     0.655733       0.000000
     54 C                    -0.110013      -0.000000
     55 C                    -0.430861       0.000000
     56 H                     0.254542       0.000000
     57 C                     0.105022       0.000000
     58 C                     0.102970      -0.000000
     59 C                    -0.432322       0.000000
     60 H                     0.251252      -0.000000
     61 C                    -0.108743       0.000000
     62 C                     0.110612      -0.000000
     63 C                    -0.407401      -0.000000
     64 H                     0.237048       0.000000
     65 C                     0.130753       0.000000
     66 C                    -0.276542      -0.000000
     67 H                     0.239241       0.000000
     68 C                    -0.326579       0.000000
     69 H                     0.235152      -0.000000
     70 C                     0.071569       0.000000
     71 C                     0.110332       0.000000
     72 C                     0.070385      -0.000000
     73 C                    -0.326720       0.000000
     74 H                     0.235151       0.000000
     75 C                    -0.277112       0.000000
     76 H                     0.239569       0.000000
     77 C                     0.133045      -0.000000
     78 C                    -0.405214      -0.000000
     79 H                     0.235154      -0.000000
     80 C                    -0.724566      -0.000000
     81 H                     0.248693       0.000000
     82 H                     0.243573      -0.000000
     83 H                     0.240818      -0.000000
     84 C                    -0.725790       0.000000
     85 H                     0.245207       0.000000
     86 H                     0.244039       0.000000
     87 H                     0.243347       0.000000
     88 B                     0.658751      -0.000000
     89 C                    -0.110943      -0.000000
     90 C                    -0.428323       0.000000
     91 H                     0.250957       0.000000
     92 C                     0.098380      -0.000000
     93 C                     0.107730       0.000000
     94 C                    -0.435234      -0.000000
     95 H                     0.254496       0.000000
     96 C                    -0.107775       0.000000
     97 C                     0.107725      -0.000000
     98 C                    -0.403853      -0.000000
     99 H                     0.234983      -0.000000
    100 C                     0.129668       0.000000
    101 C                    -0.276285      -0.000000
    102 H                     0.239452      -0.000000
    103 C                    -0.327257       0.000000
    104 H                     0.235270       0.000000
    105 C                     0.073190       0.000000
    106 C                     0.109761      -0.000000
    107 C                    -0.403890      -0.000000
    108 H                     0.235116       0.000000
    109 C                     0.132533      -0.000000
    110 C                    -0.276328       0.000000
    111 H                     0.239693      -0.000000
    112 C                    -0.327347      -0.000000
    113 H                     0.235202      -0.000000
    114 C                     0.072478       0.000000
    115 C                    -0.720655       0.000000
    116 H                     0.242341      -0.000000
    117 H                     0.244102       0.000000
    118 H                     0.243322       0.000000
    119 C                    -0.726659       0.000000
    120 H                     0.244955      -0.000000
    121 H                     0.245614       0.000000
    122 H                     0.242950      -0.000000
    123 C                    -0.225259      -0.000000
    124 C                     0.056215       0.000000
    125 C                    -0.302727      -0.000000
    126 H                     0.243079       0.000000
    127 C                     0.194222       0.000000
    128 C                    -0.312932       0.000000
    129 H                     0.242821      -0.000000
    130 C                     0.058915       0.000000
    131 N                    -0.718308      -0.000000
    132 C                     0.310849       0.000000
    133 C                     0.311704       0.000000
    134 C                     0.130045      -0.000000
    135 C                    -0.308858       0.000000
    136 H                     0.231494       0.000000
    137 C                    -0.253130      -0.000000
    138 H                     0.232602      -0.000000
    139 C                    -0.256059       0.000000
    140 H                     0.240236       0.000000
    141 C                    -0.327769      -0.000000
    142 H                     0.260215       0.000000
    143 C                     0.130037      -0.000000
    144 C                    -0.309124      -0.000000
    145 H                     0.231717       0.000000
    146 C                    -0.253129       0.000000
    147 H                     0.232472      -0.000000
    148 C                    -0.255826      -0.000000
    149 H                     0.241352       0.000000
    150 C                    -0.328085      -0.000000
    151 H                     0.260503       0.000000
    152 C                    -0.553842      -0.000000
    153 H                     0.256155      -0.000000
    154 H                     0.244800      -0.000000
    155 C                    -0.555893      -0.000000
    156 H                     0.258385      -0.000000
    157 H                     0.245845      -0.000000
    158 C                    -0.202178       0.000000
    159 C                    -0.653684      -0.000000
    160 H                     0.237261       0.000000
    161 H                     0.228788       0.000000
    162 H                     0.223466       0.000000
    163 C                    -0.654159      -0.000000
    164 H                     0.236770      -0.000000
    165 H                     0.229278      -0.000000
    166 H                     0.223153       0.000000
    167 C                    -0.615255       0.000000
    168 H                     0.226395      -0.000000
    169 H                     0.225978       0.000000
    170 H                     0.234483      -0.000000
    171 C                    -0.614138       0.000000
    172 H                     0.225732       0.000000
    173 H                     0.226322      -0.000000
    174 H                     0.234035      -0.000000
  --------------------------------------------------------
  Sum of atomic charges =    -0.000000

                    Cartesian Multipole Moments
 -----------------------------------------------------------------
    Charge (ESU x 10^10)
                -0.0000
    Dipole Moment (Debye)
         X      -0.4091      Y      -0.9381      Z       0.0870
       Tot       1.0271
    Quadrupole Moments (Debye-Ang)
        XX    -498.6026     XY     -17.8628     YY    -549.5810
        XZ     -16.0388     YZ       7.7935     ZZ    -482.0276

 Total job time:  93050.87s(wall), 463348.30s(cpu)
        *  Thank you very much for using Q-Chem.  Have a nice day.  *
