 Q-Chem 5.1, Q-Chem, Inc., Pleasanton, CA (2018)
 Q-Chem 5.1.1 for Intel X86 EM64T Linux

User input:
--------------------------------------------------------------
$rem
threads 8
jobtype	sp
method PBEh-3c
basis def2-mSVP
mem_static	1024
mem_total	8000
sym_ignore	true
unrestricted true
scf_convergence	9
solvent_method	pcm
$end

$molecule
read incoords.mol
$end

$solvent
dielectric	1.0001
$end

$pcm
theory iefpcm
HPoints 194
HeavyPoints 194
$end
--------------------------------------------------------------

   16   -3629.2543843241      6.18e-10  Convergence criterion met
 Total energy in the final basis set =    -3629.2543843241
 Total job time:  6621.59s(wall), 48880.17s(cpu)
        *  Thank you very much for using Q-Chem.  Have a nice day.  *
 Q-Chem 5.1, Q-Chem, Inc., Pleasanton, CA (2018)
 Q-Chem 5.1.1 for Intel X86 EM64T Linux

User input:
--------------------------------------------------------------

$rem
threads 8
jobtype opt
method PBEh-3c
basis def2-mSVP
scf_guess	read
mem_static      1024
mem_total       8000
sym_ignore      true
unrestricted true
mom_start       1
scf_algorithm	diis
scf_max_cycles	250
solvent_method	pcm
geom_opt_tol_energy 25
geom_opt_tol_gradient 75
$end

$solvent
dielectric      1.0001
$end

$pcm
theory iefpcm
HPoints 194
HeavyPoints 194
$end

$occupied
1 2 3 4 5 6 7 8 9 10 11 12 13 14 15 16 17 18 19 20 21 22 23 24 25 26 27 28 29 30 31 32 33 34 35 36 37 38 39 40 41 42 43 44 45 46 47 48 49 50 51 52 53 54 55 56 57 58 59 60 61 62 63 64 65 66 67 68 69 70 71 72 73 74 75 76 77 78 79 80 81 82 83 84 85 86 87 88 89 90 91 92 93 94 95 96 97 98 99 100 101 102 103 104 105 106 107 108 109 110 111 112 113 114 115 116 117 118 119 120 121 122 123 124 125 126 127 128 129 130 131 132 133 134 135 136 137 138 139 140 141 142 143 144 145 146 147 148 149 150 151 152 153 154 155 156 157 158 159 160 161 162 163 164 165 166 167 168 169 170 171 172 173 174 175 176 177 178 179 180 181 182 183 184 185 186 187 188 189 190 191 192 193 194 195 196 197 198 199 200 201 202 203 204 205 206 207 208 209 210 211 212 213 214 215 216 217 218 219 220 221 222 223 224 225 226 227 228 229 230 231 232 233 234 235 236 237 238 239 240 241 242 243 244 245 246 247 248 249 250 251 252 253 254 255 256 257 258 259 260 261 262 263 264 265 266 267 268 269 270 271 272 273 274 275 276 277 278 279 280 281 282 283 284 285 286 287 288 289 290 291 292 293 294 295 296 297 298 299 300 301 302 303 304 305 306 307 308 309 310 311 312 313 314 315 316 317 318 319 320 321  323
1 2 3 4 5 6 7 8 9 10 11 12 13 14 15 16 17 18 19 20 21 22 23 24 25 26 27 28 29 30 31 32 33 34 35 36 37 38 39 40 41 42 43 44 45 46 47 48 49 50 51 52 53 54 55 56 57 58 59 60 61 62 63 64 65 66 67 68 69 70 71 72 73 74 75 76 77 78 79 80 81 82 83 84 85 86 87 88 89 90 91 92 93 94 95 96 97 98 99 100 101 102 103 104 105 106 107 108 109 110 111 112 113 114 115 116 117 118 119 120 121 122 123 124 125 126 127 128 129 130 131 132 133 134 135 136 137 138 139 140 141 142 143 144 145 146 147 148 149 150 151 152 153 154 155 156 157 158 159 160 161 162 163 164 165 166 167 168 169 170 171 172 173 174 175 176 177 178 179 180 181 182 183 184 185 186 187 188 189 190 191 192 193 194 195 196 197 198 199 200 201 202 203 204 205 206 207 208 209 210 211 212 213 214 215 216 217 218 219 220 221 222 223 224 225 226 227 228 229 230 231 232 233 234 235 236 237 238 239 240 241 242 243 244 245 246 247 248 249 250 251 252 253 254 255 256 257 258 259 260 261 262 263 264 265 266 267 268 269 270 271 272 273 274 275 276 277 278 279 280 281 282 283 284 285 286 287 288 289 290 291 292 293 294 295 296 297 298 299 300 301 302 303 304 305 306 307 308 309 310 311 312 313 314 315 316 317 318 319 320 321 322
$end

$molecule
read
$end

--------------------------------------------------------------

  147   -3629.1497291916      6.28E-09 Convergence criterion met
 Total energy in the final basis set = -3629.14972919
   65   -3629.1553777126      6.68E-09 Convergence criterion met
 Total energy in the final basis set = -3629.15537771
   57   -3629.1519607085      6.29E-09 Convergence criterion met
 Total energy in the final basis set = -3629.15196071
   26   -3629.1554270006      8.53E-09 Convergence criterion met
 Total energy in the final basis set = -3629.15542700
   31   -3629.1493868088      9.20E-09 Convergence criterion met
 Total energy in the final basis set = -3629.14938681
   80   -3629.1544838361      6.91E-09 Convergence criterion met
 Total energy in the final basis set = -3629.15448384
   71   -3629.1530415624      4.69E-09 Convergence criterion met
 Total energy in the final basis set = -3629.15707764
   16   -3629.1570739249      6.65E-09 Convergence criterion met
 Total energy in the final basis set = -3629.15707392
   16   -3629.1571372801      5.55E-09 Convergence criterion met
 Total energy in the final basis set = -3629.15713728
   16   -3629.1571356822      6.07E-09 Convergence criterion met
 Total energy in the final basis set = -3629.15713568
   18   -3629.1571963268      9.80E-09 Convergence criterion met
 Total energy in the final basis set = -3629.15719633
   17   -3629.1573075613      9.10E-09 Convergence criterion met
 Total energy in the final basis set = -3629.15730756
   16   -3629.1572939390      5.87E-09 Convergence criterion met
 Total energy in the final basis set = -3629.15729394
   15   -3629.1573010068      6.05E-09 Convergence criterion met
 Total energy in the final basis set = -3629.15730101

                    Orbital Energies (a.u.)
 --------------------------------------------------------------

 Alpha MOs
 -- Occupied --
-14.728 -14.724 -10.525 -10.524 -10.522 -10.522 -10.497 -10.495
-10.488 -10.486 -10.485 -10.485 -10.482 -10.481 -10.472 -10.472
-10.469 -10.469 -10.469 -10.469 -10.469 -10.468 -10.468 -10.468
-10.467 -10.466 -10.466 -10.466 -10.465 -10.465 -10.451 -10.450
-10.448 -10.448 -10.443 -10.443 -10.443 -10.442 -10.442 -10.442
-10.441 -10.440 -10.439 -10.439 -10.439 -10.438 -10.438 -10.438
-10.437 -10.437 -10.437 -10.437 -10.436 -10.436 -10.429 -10.429
-10.429 -10.429 -10.427 -10.427 -10.426 -10.426 -10.426 -10.426
-10.426 -10.426 -10.425 -10.425 -10.424 -10.424 -10.424 -10.424
-10.423 -10.423 -10.418 -10.417 -10.417 -10.417 -10.414 -10.414
-10.410 -10.410 -10.409 -10.409 -10.404 -10.404 -10.403 -10.402
-10.385 -10.384 -10.384 -10.384  -6.878  -6.878  -1.122  -1.120
 -0.992  -0.989  -0.987  -0.984  -0.970  -0.970  -0.953  -0.952
 -0.939  -0.939  -0.937  -0.933  -0.921  -0.918  -0.880  -0.880
 -0.879  -0.879  -0.878  -0.877  -0.870  -0.868  -0.865  -0.861
 -0.849  -0.849  -0.845  -0.843  -0.840  -0.837  -0.830  -0.830
 -0.823  -0.822  -0.798  -0.796  -0.795  -0.794  -0.794  -0.791
 -0.785  -0.784  -0.783  -0.780  -0.780  -0.772  -0.747  -0.744
 -0.739  -0.737  -0.737  -0.736  -0.710  -0.708  -0.704  -0.704
 -0.700  -0.697  -0.694  -0.690  -0.688  -0.687  -0.680  -0.676
 -0.663  -0.656  -0.653  -0.651  -0.645  -0.643  -0.643  -0.641
 -0.640  -0.640  -0.635  -0.623  -0.622  -0.621  -0.602  -0.596
 -0.593  -0.586  -0.585  -0.581  -0.565  -0.563  -0.562  -0.559
 -0.555  -0.554  -0.553  -0.552  -0.551  -0.549  -0.545  -0.541
 -0.537  -0.536  -0.526  -0.524  -0.522  -0.521  -0.519  -0.517
 -0.517  -0.515  -0.510  -0.509  -0.507  -0.506  -0.506  -0.504
 -0.504  -0.502  -0.502  -0.491  -0.489  -0.487  -0.486  -0.485
 -0.482  -0.481  -0.476  -0.474  -0.473  -0.473  -0.472  -0.472
 -0.470  -0.470  -0.469  -0.467  -0.465  -0.464  -0.462  -0.461
 -0.460  -0.457  -0.457  -0.454  -0.453  -0.452  -0.451  -0.450
 -0.450  -0.448  -0.447  -0.446  -0.446  -0.444  -0.439  -0.439
 -0.438  -0.438  -0.437  -0.435  -0.435  -0.432  -0.430  -0.425
 -0.423  -0.422  -0.421  -0.419  -0.419  -0.417  -0.415  -0.411
 -0.406  -0.403  -0.403  -0.401  -0.400  -0.397  -0.396  -0.394
 -0.393  -0.392  -0.391  -0.389  -0.388  -0.388  -0.387  -0.387
 -0.386  -0.383  -0.382  -0.380  -0.375  -0.373  -0.370  -0.369
 -0.366  -0.364  -0.357  -0.356  -0.355  -0.355  -0.330  -0.330
 -0.321  -0.318  -0.315  -0.312  -0.309  -0.309  -0.308  -0.306
 -0.304  -0.303  -0.301  -0.300  -0.300  -0.291  -0.274  -0.272
 -0.271  -0.265  -0.256  -0.250  -0.243  -0.231  -0.223  -0.220
 -0.202  -0.124

 Beta MOs
 -- Occupied --
-14.734 -14.730 -10.524 -10.524 -10.521 -10.521 -10.497 -10.495
-10.487 -10.486 -10.486 -10.486 -10.483 -10.483 -10.471 -10.471
-10.471 -10.470 -10.470 -10.469 -10.468 -10.468 -10.468 -10.468
-10.467 -10.467 -10.467 -10.466 -10.466 -10.465 -10.451 -10.451
-10.448 -10.448 -10.443 -10.443 -10.442 -10.442 -10.442 -10.442
-10.441 -10.440 -10.439 -10.439 -10.439 -10.439 -10.438 -10.438
-10.437 -10.437 -10.437 -10.437 -10.436 -10.436 -10.429 -10.429
-10.429 -10.429 -10.427 -10.427 -10.426 -10.426 -10.426 -10.426
-10.426 -10.425 -10.424 -10.424 -10.424 -10.424 -10.423 -10.423
-10.423 -10.423 -10.418 -10.417 -10.417 -10.416 -10.414 -10.414
-10.410 -10.410 -10.409 -10.409 -10.404 -10.404 -10.403 -10.402
-10.384 -10.384 -10.383 -10.383  -6.875  -6.875  -1.132  -1.128
 -0.994  -0.992  -0.989  -0.986  -0.970  -0.969  -0.954  -0.953
 -0.939  -0.939  -0.938  -0.935  -0.919  -0.917  -0.882  -0.880
 -0.879  -0.879  -0.878  -0.878  -0.870  -0.869  -0.866  -0.863
 -0.848  -0.848  -0.845  -0.844  -0.842  -0.837  -0.830  -0.830
 -0.826  -0.825  -0.799  -0.797  -0.796  -0.795  -0.795  -0.791
 -0.783  -0.783  -0.783  -0.779  -0.779  -0.771  -0.747  -0.745
 -0.742  -0.739  -0.737  -0.737  -0.711  -0.708  -0.705  -0.704
 -0.699  -0.698  -0.695  -0.689  -0.688  -0.687  -0.678  -0.675
 -0.662  -0.656  -0.654  -0.652  -0.646  -0.645  -0.643  -0.642
 -0.640  -0.639  -0.634  -0.624  -0.622  -0.621  -0.600  -0.596
 -0.592  -0.585  -0.584  -0.580  -0.567  -0.564  -0.563  -0.560
 -0.560  -0.557  -0.555  -0.552  -0.551  -0.549  -0.544  -0.541
 -0.537  -0.535  -0.526  -0.525  -0.523  -0.522  -0.520  -0.519
 -0.518  -0.517  -0.511  -0.509  -0.508  -0.506  -0.505  -0.504
 -0.504  -0.502  -0.501  -0.490  -0.489  -0.487  -0.487  -0.486
 -0.485  -0.485  -0.478  -0.477  -0.476  -0.475  -0.472  -0.472
 -0.470  -0.469  -0.469  -0.467  -0.464  -0.464  -0.462  -0.461
 -0.460  -0.457  -0.456  -0.454  -0.454  -0.452  -0.451  -0.450
 -0.450  -0.448  -0.446  -0.446  -0.445  -0.445  -0.443  -0.441
 -0.438  -0.437  -0.436  -0.435  -0.435  -0.432  -0.430  -0.424
 -0.424  -0.423  -0.422  -0.421  -0.419  -0.417  -0.416  -0.410
 -0.406  -0.405  -0.404  -0.403  -0.402  -0.401  -0.400  -0.397
 -0.394  -0.393  -0.389  -0.389  -0.388  -0.387  -0.386  -0.386
 -0.386  -0.383  -0.381  -0.379  -0.375  -0.372  -0.371  -0.367
 -0.366  -0.364  -0.357  -0.356  -0.355  -0.354  -0.328  -0.328
 -0.327  -0.324  -0.318  -0.315  -0.313  -0.312  -0.309  -0.306
 -0.303  -0.300  -0.299  -0.298  -0.297  -0.289  -0.274  -0.273
 -0.272  -0.264  -0.261  -0.257  -0.251  -0.247  -0.234  -0.227
 -0.221  -0.214

          Ground-State Mulliken Net Atomic Charges

     Atom                 Charge (a.u.)    Spin (a.u.)
  --------------------------------------------------------
      1 N                    -0.663314      -0.229045
      2 C                     0.305748       0.047857
      3 C                     0.303104       0.047450
      4 C                     0.167871      -0.115610
      5 C                    -0.294439       0.075858
      6 H                     0.219707      -0.003662
      7 C                    -0.209620      -0.129315
      8 H                     0.231581       0.007042
      9 C                    -0.237423       0.067145
     10 H                     0.245036      -0.003122
     11 C                    -0.283295      -0.092171
     12 H                     0.290876       0.005043
     13 C                     0.166787      -0.115049
     14 C                    -0.294357       0.075463
     15 H                     0.219732      -0.003650
     16 C                    -0.209289      -0.128533
     17 H                     0.231644       0.007011
     18 C                    -0.237399       0.066958
     19 H                     0.244332      -0.003142
     20 C                    -0.284245      -0.091918
     21 H                     0.287428       0.005044
     22 C                     0.150183       0.020082
     23 C                    -0.306121      -0.011302
     24 H                     0.219514       0.000749
     25 C                    -0.282478      -0.012008
     26 H                     0.215708       0.001019
     27 C                     0.046164       0.007001
     28 C                     0.044613       0.007163
     29 C                    -0.160882      -0.032779
     30 C                    -0.538976       0.001994
     31 H                     0.216355       0.000731
     32 H                     0.276400      -0.002305
     33 C                    -0.544467       0.002677
     34 H                     0.277855      -0.002657
     35 H                     0.217102       0.000715
     36 C                    -0.225961       0.018919
     37 C                    -0.649140      -0.000087
     38 H                     0.218717      -0.000046
     39 H                     0.261012      -0.000527
     40 H                     0.200651      -0.000090
     41 C                    -0.649673       0.000235
     42 H                     0.266243      -0.000780
     43 H                     0.215604      -0.000038
     44 H                     0.200875      -0.000108
     45 C                    -0.593374      -0.011818
     46 H                     0.239470       0.000476
     47 H                     0.225306      -0.000216
     48 H                     0.225379      -0.000212
     49 C                    -0.603096      -0.010036
     50 H                     0.243189       0.000330
     51 H                     0.224863       0.000001
     52 H                     0.224998       0.000014
     53 B                     0.506973       0.353811
     54 C                    -0.091422       0.028097
     55 C                    -0.438377      -0.011228
     56 H                     0.205050      -0.000424
     57 C                     0.106028       0.055621
     58 C                     0.103501       0.060524
     59 C                    -0.440834      -0.017087
     60 H                     0.206964      -0.000018
     61 C                    -0.086709       0.029510
     62 C                     0.124881      -0.018063
     63 C                     0.074274       0.015417
     64 C                    -0.305867      -0.009431
     65 H                     0.197938       0.000452
     66 C                    -0.270478       0.019164
     67 H                     0.201854      -0.001207
     68 C                     0.148139      -0.010233
     69 C                    -0.393024       0.016059
     70 H                     0.200229      -0.000956
     71 C                     0.127631      -0.020251
     72 C                    -0.394655       0.018050
     73 H                     0.200851      -0.001086
     74 C                     0.150976      -0.011642
     75 C                    -0.272100       0.021232
     76 H                     0.201917      -0.001329
     77 C                    -0.305226      -0.010975
     78 H                     0.197498       0.000539
     79 C                     0.072102       0.017575
     80 C                    -0.720724       0.000982
     81 H                     0.231672      -0.000046
     82 H                     0.221515      -0.000441
     83 H                     0.232138      -0.000335
     84 C                    -0.717911       0.000858
     85 H                     0.227588      -0.000041
     86 H                     0.221601      -0.000365
     87 H                     0.232802      -0.000335
     88 C                    -0.091051       0.026436
     89 C                    -0.438954      -0.011996
     90 H                     0.209086      -0.000340
     91 C                     0.104581       0.057200
     92 C                     0.101538       0.059476
     93 C                    -0.441894      -0.014840
     94 H                     0.209264      -0.000150
     95 C                    -0.088032       0.027537
     96 C                     0.126969      -0.019723
     97 C                    -0.391447       0.017545
     98 H                     0.200034      -0.001046
     99 C                     0.149035      -0.011363
    100 C                    -0.271608       0.020800
    101 H                     0.201902      -0.001302
    102 C                    -0.306013      -0.010710
    103 H                     0.197641       0.000525
    104 C                     0.074543       0.017108
    105 C                     0.119497      -0.018482
    106 C                     0.076657       0.015714
    107 C                    -0.306195      -0.009695
    108 H                     0.197859       0.000466
    109 C                    -0.270279       0.019559
    110 H                     0.201956      -0.001230
    111 C                     0.149394      -0.010499
    112 C                    -0.390094       0.016470
    113 H                     0.198992      -0.000938
    114 C                    -0.714538       0.000910
    115 H                     0.223969      -0.000051
    116 H                     0.230292      -0.000330
    117 H                     0.225703      -0.000423
    118 C                    -0.718053       0.000847
    119 H                     0.222477      -0.000048
    120 H                     0.224367      -0.000367
    121 H                     0.232938      -0.000349
    122 B                     0.508527       0.347130
    123 C                    -0.167931      -0.034777
    124 C                     0.044761       0.008076
    125 C                    -0.286293      -0.012478
    126 H                     0.218370       0.000983
    127 C                     0.154696       0.018235
    128 C                    -0.299929      -0.011558
    129 H                     0.219420       0.000819
    130 C                     0.043713       0.007630
    131 N                    -0.666808      -0.213625
    132 C                     0.307172       0.045073
    133 C                     0.304693       0.044557
    134 C                     0.163586      -0.108156
    135 C                    -0.292219       0.070662
    136 H                     0.218617      -0.003410
    137 C                    -0.212186      -0.120010
    138 H                     0.229966       0.006528
    139 C                    -0.235859       0.062190
    140 H                     0.244856      -0.002894
    141 C                    -0.288580      -0.085368
    142 H                     0.289307       0.004704
    143 C                     0.162654      -0.109029
    144 C                    -0.292064       0.071349
    145 H                     0.218749      -0.003448
    146 C                    -0.211656      -0.121385
    147 H                     0.230287       0.006619
    148 C                    -0.233851       0.063285
    149 H                     0.239815      -0.002957
    150 C                    -0.286916      -0.086723
    151 H                     0.285294       0.004750
    152 C                    -0.540409       0.002414
    153 H                     0.217585       0.000616
    154 H                     0.277395      -0.002433
    155 C                    -0.541913       0.002661
    156 H                     0.275405      -0.002461
    157 H                     0.217730       0.000669
    158 C                    -0.225263       0.017825
    159 C                    -0.646861      -0.000148
    160 H                     0.259361      -0.000425
    161 H                     0.217901      -0.000059
    162 H                     0.200578      -0.000081
    163 C                    -0.649457      -0.000020
    164 H                     0.262824      -0.000561
    165 H                     0.200428      -0.000091
    166 H                     0.216676      -0.000077
    167 C                    -0.595139      -0.010868
    168 H                     0.240499       0.000402
    169 H                     0.224392      -0.000112
    170 H                     0.223841      -0.000131
    171 C                    -0.599145      -0.010051
    172 H                     0.223854      -0.000011
    173 H                     0.223936      -0.000035
    174 H                     0.241768       0.000340
  --------------------------------------------------------
  Sum of atomic charges =    -0.000000

                    Cartesian Multipole Moments
 -----------------------------------------------------------------
    Charge (ESU x 10^10)
                -0.0000
    Dipole Moment (Debye)
         X       1.2668      Y       0.2206      Z      -0.1182
       Tot       1.2913
    Quadrupole Moments (Debye-Ang)
        XX    -408.6157     XY     -51.3435     YY    -546.9612
        XZ     102.6639     YZ     -39.5873     ZZ    -443.7512

             Standard Nuclear Orientation (Angstroms)
    I     Atom           X                Y                Z
 ----------------------------------------------------------------
    1      N       0.1142750106    -0.0094430689     0.2211572959
    2      C      -0.0146590865    -0.0579314809     1.5947191337
    3      C       1.3042721247    -0.2895973637    -0.4194595023
    4      C       2.4266062970    -0.7085353413     0.3108967386
    5      C       3.5882773306    -0.9947599614    -0.3945828511
    6      H       4.4636967237    -1.3343256103     0.1435239910
    7      C       3.6648413982    -0.8714113827    -1.7711959946
    8      H       4.5865314111    -1.1061174997    -2.2856552036
    9      C       2.5480913775    -0.4487345882    -2.4822147063
   10      H       2.5881990070    -0.3440870368    -3.5581158730
   11      C       1.3779885257    -0.1623587961    -1.8187607415
   12      H       0.5121273855     0.1619557872    -2.3774055185
   13      C       1.0616068094    -0.4665625753     2.3978179528
   14      C       0.8632645692    -0.5113583811     3.7711942785
   15      H       1.6720731651    -0.8382926510     4.4117698036
   16      C      -0.3430141154    -0.1619429548     4.3537987028
   17      H      -0.4594527657    -0.2099516727     5.4276925020
   18      C      -1.3987827083     0.2452909162     3.5471878885
   19      H      -2.3487542963     0.5230004778     3.9839036990
   20      C      -1.2425781750     0.2947768748     2.1817885027
   21      H      -2.0679136069     0.6071334811     1.5587423390
   22      C      -1.0447964197     0.2577673738    -0.5773391892
   23      C      -1.3723411282     1.5546631487    -0.9269752843
   24      H      -0.7551871877     2.3785368743    -0.5861342742
   25      C      -1.8165337215    -0.8061373116    -1.0056038309
   26      H      -1.5437492291    -1.8171161416    -0.7225857516
   27      C      -2.4883387727     1.7943307649    -1.7226995787
   28      C      -2.9317237673    -0.5804763546    -1.8052245686
   29      C      -3.2812494147     0.7270115769    -2.1784944325
   30      C      -3.7680907299    -1.7628098321    -2.2204207032
   31      H      -3.1287016433    -2.6449103333    -2.3175042187
   32      H      -4.1995210500    -1.5861762011    -3.2067762519
   33      C      -2.7831717717     3.2111309109    -2.1369562332
   34      H      -3.8618007903     3.3612310149    -2.2038202023
   35      H      -2.4220645986     3.8994587441    -1.3679628698
   36      C       2.3884115440    -0.8994647361     1.8108547105
   37      C      -4.8883010867    -2.0574746933    -1.2252002586
   38      H      -5.4590058077    -2.9342708998    -1.5328819258
   39      H      -5.5831591472    -1.2208964368    -1.1559517419
   40      H      -4.4924865517    -2.2504794209    -0.2266388128
   41      C      -2.1359248624     3.5587484539    -3.4761338070
   42      H      -2.5073135642     2.9119356358    -4.2703865329
   43      H      -2.3539806388     4.5895493989    -3.7577314326
   44      H      -1.0513734290     3.4458478694    -3.4315520235
   45      C       2.5870906138    -2.3972733088     2.1135745916
   46      H       1.7901966076    -2.9932087345     1.6686890450
   47      H       2.5866497020    -2.5832677604     3.1878160748
   48      H       3.5368339444    -2.7562984898     1.7159739738
   49      C       3.5190114012    -0.0759676862     2.4502112496
   50      H       3.3942004046     0.9852246171     2.2372538336
   51      H       3.5398893710    -0.2039825366     3.5318514441
   52      H       4.4940997356    -0.3833093578     2.0733285908
   53      B      -4.5329796761     1.0089042428    -3.1125434830
   54      C      -4.4268902493     0.8207947325    -4.6290528591
   55      C      -3.2884337881     0.2738455497    -5.2252910421
   56      H      -2.4593544562     0.0303968299    -4.5733177596
   57      C      -3.1722971071     0.0216160332    -6.5872703313
   58      C      -4.2524308089     0.3902107137    -7.4325854175
   59      C      -5.3728571700     0.9685051902    -6.8512222057
   60      H      -6.1984386111     1.2702823650    -7.4828935376
   61      C      -5.5185844623     1.1786260513    -5.4804508677
   62      C      -1.9928291900    -0.6122716921    -7.1621379322
   63      C      -1.8993664230    -0.7987315101    -8.5523738645
   64      C      -0.7406317209    -1.4011332121    -9.0632159700
   65      H      -0.6328255248    -1.5552516143   -10.1273421228
   66      C       0.2799381011    -1.8263160163    -8.2485851742
   67      H       1.1544487727    -2.2944224623    -8.6851774628
   68      C       0.1866900629    -1.6736185776    -6.8628417187
   69      C      -0.9409898281    -1.0699319211    -6.3530196902
   70      H      -1.0145623488    -0.9667051412    -5.2789574219
   71      C      -4.1691018110     0.1528503658    -8.8683404551
   72      C      -5.2383121453     0.4589714895    -9.7266657877
   73      H      -6.1533591803     0.8627932186    -9.3148331583
   74      C      -5.1903232799     0.2505815147   -11.0873402899
   75      C      -4.0173532802    -0.2832204386   -11.6272750635
   76      H      -3.9425521116    -0.4589483467   -12.6941315749
   77      C      -2.9598957136    -0.6019402395   -10.8107978430
   78      H      -2.0787249597    -1.0237686608   -11.2726461109
   79      C      -3.0050382164    -0.4060606540    -9.4223399628
   80      C      -6.3559170282     0.5837414391   -11.9716411196
   81      H      -7.2423215232     0.8382242377   -11.3906263220
   82      H      -6.1312892083     1.4310029824   -12.6241370167
   83      H      -6.6192925238    -0.2545707807   -12.6183515085
   84      C       1.2846668829    -2.1618033595    -5.9650629306
   85      H       1.0248022234    -2.0430050323    -4.9130907362
   86      H       2.2158078146    -1.6189088253    -6.1424795280
   87      H       1.4952255186    -3.2194699276    -6.1320284800
   88      C      -5.8618899564     1.4854582596    -2.5206596486
   89      C      -6.0752328250     1.5286930467    -1.1418386048
   90      H      -5.2478484563     1.2357110369    -0.5080916469
   91      C      -7.2791879057     1.9060815864    -0.5580651477
   92      C      -8.3244691900     2.3568835224    -1.4061873151
   93      C      -8.1227577478     2.3083675144    -2.7795697006
   94      H      -8.9223889313     2.6105306605    -3.4435425097
   95      C      -6.9441695513     1.8614989346    -3.3761864153
   96      C      -9.5705156889     2.8414940712    -0.8277717348
   97      C     -10.5991493070     3.3558458157    -1.6333972104
   98      H     -10.4645167294     3.3986254095    -2.7057507694
   99      C     -11.7889446818     3.8234481570    -1.1215671751
  100      C     -11.9619038696     3.7930412047     0.2649100032
  101      H     -12.8810957184     4.1619127940     0.7047864792
  102      C     -10.9697087821     3.3011715199     1.0780208097
  103      H     -11.1448204370     3.3054992364     2.1444186698
  104      C      -9.7608564681     2.8096988770     0.5637072817
  105      C      -7.5075180086     1.8167223071     0.8769928783
  106      C      -8.7223638887     2.2588501726     1.4284236154
  107      C      -8.9065613087     2.1282809716     2.8122314340
  108      H      -9.8316769970     2.4500452608     3.2691294487
  109      C      -7.9463744719     1.5795737060     3.6271172388
  110      H      -8.1342629344     1.4907418402     4.6907018739
  111      C      -6.7417012947     1.1196167745     3.0881661569
  112      C      -6.5507467357     1.2480140863     1.7309600910
  113      H      -5.6288173567     0.8668109697     1.3135188904
  114      C     -12.8738271693     4.3412237200    -2.0203562491
  115      H     -12.5262203778     4.4446076832    -3.0486209428
  116      H     -13.2329193002     5.3190452220    -1.6958723267
  117      H     -13.7350749507     3.6692563644    -2.0279448917
  118      C      -5.6979592773     0.4930788957     3.9646067647
  119      H      -4.8647714987     0.1084690138     3.3755585299
  120      H      -5.2963261006     1.2113898128     4.6825998297
  121      H      -6.1059096447    -0.3413688803     4.5371092377
  122      B      -6.8139753617     1.7492084169    -4.8964784198
  123      C      -8.0068914978     2.1793648223    -5.8527303306
  124      C      -8.8786946450     1.2186959039    -6.3923757920
  125      C      -9.8889473732     1.6012933115    -7.2666605852
  126      H     -10.5501828735     0.8577471893    -7.6989500303
  127      C     -10.0531685068     2.9330550826    -7.5948055393
  128      C      -9.2230803380     3.8999957282    -7.0608417449
  129      H      -9.3625931612     4.9404742389    -7.3333530860
  130      C      -8.1977433504     3.5280183366    -6.1979912601
  131      N     -11.0715900665     3.2969346687    -8.5309745800
  132      C     -12.3694393010     3.4501462840    -8.0885172469
  133      C     -10.7250375067     3.4326174436    -9.8612346592
  134      C     -11.7002527991     3.7294394586   -10.8262598526
  135      C     -11.2937091066     3.8592333975   -12.1478864739
  136      H     -12.0317340351     4.0827951623   -12.9074940524
  137      C      -9.9742799623     3.7052502391   -12.5330163342
  138      H      -9.6948652959     3.8155420325   -13.5718282001
  139      C      -9.0193822500     3.4005022848   -11.5718121956
  140      H      -7.9830147668     3.2685376754   -11.8512994572
  141      C      -9.3856353468     3.2582955390   -10.2528514055
  142      H      -8.6342900331     3.0118021364    -9.5175000898
  143      C     -13.4054196935     3.7323837805    -8.9940676062
  144      C     -14.6930013766     3.8643403587    -8.4917921507
  145      H     -15.5058328062     4.0747268152    -9.1754212961
  146      C     -14.9777977858     3.7315241710    -7.1442878107
  147      H     -15.9941239331     3.8392576659    -6.7910493789
  148      C     -13.9444520575     3.4598276920    -6.2565514053
  149      H     -14.1431810832     3.3548677606    -5.1983969888
  150      C     -12.6553857925     3.3212009365    -6.7179500602
  151      H     -11.8593299132     3.1087695160    -6.0196018432
  152      C      -8.7855879158    -0.2360648733    -6.0135763369
  153      H      -9.0866796112    -0.8542264593    -6.8642087590
  154      H      -7.7519943990    -0.5029852287    -5.7896494831
  155      C      -7.2522615441     4.5945103120    -5.7160052127
  156      H      -6.8766689477     4.3423672940    -4.7232272633
  157      H      -7.7883468518     5.5421157927    -5.6140664172
  158      C     -13.1682581662     3.8780609068   -10.4838291727
  159      C      -9.6686450667    -0.5640839624    -4.8112467779
  160      H      -9.3645807742     0.0083172307    -3.9351677732
  161      H      -9.6008576363    -1.6221060264    -4.5562085111
  162      H     -10.7165012431    -0.3360258951    -5.0145575234
  163      C      -6.0795235153     4.7724143180    -6.6786039715
  164      H      -5.5096180150     3.8483942805    -6.7730715682
  165      H      -6.4268388768     5.0550987650    -7.6739774129
  166      H      -5.3988025105     5.5492303568    -6.3286922594
  167      C     -13.9613247772     2.7818211104   -11.2220642869
  168      H     -13.6369406338     1.7887979447   -10.9123869362
  169      H     -13.8266596705     2.8582114265   -12.3012302991
  170      H     -15.0292972571     2.8657005751   -11.0198332842
  171      C     -13.6587534796     5.2643526105   -10.9402437527
  172      H     -14.7194564708     5.3967038705   -10.7288877439
  173      H     -13.5274849199     5.3958111102   -12.0140796799
  174      H     -13.1122158742     6.0592539119   -10.4342148697
 ----------------------------------------------------------------
