 Q-Chem 5.1, Q-Chem, Inc., Pleasanton, CA (2018)
 Q-Chem 5.1.1 for Intel X86 EM64T Linux

User input:
--------------------------------------------------------------
$rem
threads 8
jobtype opt
method PBEh-3c
basis def2-mSVP
mem_static      1024
mem_total       8000
sym_ignore      true
unrestricted true
scf_algorithm	diis
scf_max_cycles	250
solvent_method  pcm
geom_opt_tol_energy 25
geom_opt_tol_gradient 75
$end

$pcm
theory  iefpcm
HPoints 194
HeavyPoints 194
$end

$solvent
dielectric      2.38
$end

$molecule
read uincoords.mol
$end
--------------------------------------------------------------

   22   -3629.1783737655      8.41e-09  Convergence criterion met
 Total energy in the final basis set =    -3629.1783737655
   21   -3629.1850728479      8.36e-09  Convergence criterion met
 Total energy in the final basis set =    -3629.1850728479
   21   -3629.1859002951      7.51e-09  Convergence criterion met
 Total energy in the final basis set =    -3629.1859002951
   21   -3629.1848568106      7.07e-09  Convergence criterion met
 Total energy in the final basis set =    -3629.1848568106
   21   -3629.1842266336      7.41e-09  Convergence criterion met
 Total energy in the final basis set =    -3629.1842266336
   20   -3629.1857461787      8.97e-09  Convergence criterion met
 Total energy in the final basis set =    -3629.1857461787
   21   -3629.1870884307      7.45e-09  Convergence criterion met
 Total energy in the final basis set =    -3629.1870884307
   21   -3629.1867435239      6.67e-09  Convergence criterion met
   18   -3629.1873790334      9.96e-09  Convergence criterion met
 Total energy in the final basis set =    -3629.1873790334
   19   -3629.1873584486      5.57e-09  Convergence criterion met
 Total energy in the final basis set =    -3629.1873584486
   19   -3629.1873496240      5.70e-09  Convergence criterion met
 Total energy in the final basis set =    -3629.1873496240
   19   -3629.1873517609      5.76e-09  Convergence criterion met
 Total energy in the final basis set =    -3629.1873517609
   19   -3629.1873552276      5.77e-09  Convergence criterion met
 Total energy in the final basis set =    -3629.1873552276
   19   -3629.1873564972      5.76e-09  Convergence criterion met
 Total energy in the final basis set =    -3629.1873564972

             Standard Nuclear Orientation (Angstroms)
    I     Atom           X                Y                Z
 ----------------------------------------------------------------
    1      N       0.1557908085    -0.0680392308     0.1389147783
    2      C       0.0988652525    -0.2837985473     1.4961319504
    3      C       1.3263658560    -0.1361423056    -0.5811698758
    4      C       2.5347620978    -0.4613564010     0.0619876217
    5      C       3.6832272824    -0.5084360528    -0.7153639594
    6      H       4.6285551399    -0.7610075807    -0.2545999284
    7      C       3.6543006739    -0.2535048835    -2.0768339899
    8      H       4.5693404879    -0.3004968269    -2.6512604542
    9      C       2.4484133732     0.0501426011    -2.7057143391
   10      H       2.4148529694     0.2387416510    -3.7697894588
   11      C       1.2908839600     0.1053279873    -1.9713281872
   12      H       0.3575233186     0.3335803752    -2.4642391115
   13      C       1.2581850513    -0.6528840782     2.2032116511
   14      C       1.1285033314    -0.8951902742     3.5626550492
   15      H       1.9952198765    -1.1959553159     4.1354240018
   16      C      -0.0880335661    -0.7673350333     4.2137549330
   17      H      -0.1514182479    -0.9663247469     5.2747524976
   18      C      -1.2239153054    -0.3793155824     3.5055887130
   19      H      -2.1734387508    -0.2661389332     4.0101113782
   20      C      -1.1379575497    -0.1382882973     2.1577325488
   21      H      -2.0164115940     0.1644762434     1.6072748878
   22      C      -1.0675289021     0.1914697017    -0.5734993307
   23      C      -1.4247692855     1.4908381447    -0.8758997202
   24      H      -0.8031212593     2.3182472937    -0.5524688609
   25      C      -1.8390901463    -0.8837027304    -0.9705010162
   26      H      -1.5366743927    -1.8943128711    -0.7187224996
   27      C      -2.5807727629     1.7234354530    -1.6153753854
   28      C      -2.9939281255    -0.6587478346    -1.7124039607
   29      C      -3.3730656049     0.6495145326    -2.0592751751
   30      C      -3.8346536473    -1.8452949327    -2.1037729272
   31      H      -3.1981965537    -2.7292289987    -2.1997606397
   32      H      -4.2814201058    -1.6776694258    -3.0846169202
   33      C      -2.9092883207     3.1431626779    -1.9926805083
   34      H      -3.9907694718     3.2755792467    -2.0346469736
   35      H      -2.5421651898     3.8212410291    -1.2177061538
   36      C       2.5982354355    -0.8068530829     1.5284049366
   37      C      -4.9408218482    -2.1246074214    -1.0886607301
   38      H      -5.5228283977    -2.9984836766    -1.3824786504
   39      H      -5.6283465465    -1.2821021591    -1.0154694306
   40      H      -4.5304594734    -2.3144936134    -0.0951850568
   41      C      -2.2986373417     3.5295823901    -3.3387877356
   42      H      -2.6715720043     2.8881702162    -4.1369048679
   43      H      -2.5498396235     4.5589780452    -3.5960148107
   44      H      -1.2105243615     3.4450644727    -3.3193541037
   45      C       3.0420592128    -2.2797343164     1.6519762554
   46      H       2.3305785585    -2.9451181151     1.1629526689
   47      H       3.1208826735    -2.5760521964     2.6974383610
   48      H       4.0177741600    -2.4298745994     1.1909935373
   49      C       3.6136427939     0.1206433501     2.2207069878
   50      H       3.3029619699     1.1623265140     2.1469380915
   51      H       3.7169473095    -0.1300675221     3.2754225673
   52      H       4.6003126580     0.0274973894     1.7694722302
   53      B      -4.6257255173     0.9236392151    -2.9971360147
   54      C      -4.4886749894     0.7277393875    -4.5099823846
   55      C      -3.3418511976     0.1716172467    -5.0859935347
   56      H      -2.5294103692    -0.0875712469    -4.4191217902
   57      C      -3.1983704722    -0.0737396974    -6.4464138569
   58      C      -4.2546231002     0.3109864384    -7.3151235748
   59      C      -5.3839907262     0.8954864646    -6.7535199221
   60      H      -6.1947489792     1.2072593611    -7.3990016627
   61      C      -5.5565175325     1.0989722511    -5.3861667494
   62      C      -2.0137636416    -0.7211943307    -6.9990110079
   63      C      -1.8979345238    -0.9116010799    -8.3874675625
   64      C      -0.7395739702    -1.5352017625    -8.8757457455
   65      H      -0.6144933766    -1.6944305151    -9.9373181834
   66      C       0.2597550587    -1.9739781716    -8.0412615676
   67      H       1.1340165510    -2.4575714540    -8.4613108139
   68      C       0.1461303755    -1.8132319176    -6.6573006009
   69      C      -0.9813946889    -1.1892527712    -6.1698252564
   70      H      -1.0703023206    -1.0791049854    -5.0973754627
   71      C      -4.1421105203     0.0838275447    -8.7501931663
   72      C      -5.1837881825     0.4227644325    -9.6309353236
   73      H      -6.0973332246     0.8511852335    -9.2412994384
   74      C      -5.1085128928     0.2202679789   -10.9920483847
   75      C      -3.9356105084    -0.3405034341   -11.5072591993
   76      H      -3.8408231232    -0.5122085835   -12.5731790089
   77      C      -2.9038143320    -0.6881562328   -10.6690059218
   78      H      -2.0220071272    -1.1268488454   -11.1140098104
   79      C      -2.9772507734    -0.4969454890    -9.2806025000
   80      C      -6.2438374681     0.5878933043   -11.9009074534
   81      H      -7.1328646662     0.8744563179   -11.3401235570
   82      H      -5.9776654381     1.4257008344   -12.5492455150
   83      H      -6.5180393856    -0.2440657987   -12.5512257410
   84      C       1.2166639826    -2.3251368603    -5.7394269348
   85      H       1.0028885004    -2.0824245831    -4.6985035728
   86      H       2.1920321570    -1.9023436861    -5.9878971118
   87      H       1.3122161233    -3.4102555017    -5.8100956108
   88      C      -5.9581360424     1.4198921471    -2.4335722475
   89      C      -6.1966201841     1.4952722159    -1.0581474589
   90      H      -5.3895330342     1.1951104554    -0.4015246216
   91      C      -7.3994770262     1.9187477253    -0.5044231226
   92      C      -8.4218621202     2.3717029952    -1.3796945381
   93      C      -8.1984292018     2.2832359267    -2.7494560203
   94      H      -8.9772601951     2.5892358793    -3.4356570028
   95      C      -7.0188087769     1.8031501608    -3.3140620441
   96      C      -9.6610194842     2.9105060927    -0.8360755671
   97      C     -10.6643774298     3.4249789435    -1.6742996133
   98      H     -10.5220436891     3.4178653818    -2.7464492855
   99      C     -11.8410689160     3.9563419246    -1.1935734083
  100      C     -12.0264125204     3.9898554889     0.1925234575
  101      H     -12.9352647979     4.4105629992     0.6067427176
  102      C     -11.0614482582     3.4941339617     1.0363580143
  103      H     -11.2471015954     3.5477171659     2.0998528691
  104      C      -9.8668644422     2.9381077847     0.5536700133
  105      C      -7.6499381492     1.8830968922     0.9309593725
  106      C      -8.8578255050     2.3816502063     1.4496677120
  107      C      -9.0651506396     2.3023248633     2.8349455108
  108      H      -9.9865564354     2.6659334511     3.2674456099
  109      C      -8.1324384412     1.7530119882     3.6816382910
  110      H      -8.3376906081     1.7054259615     4.7447309470
  111      C      -6.9335961142     1.2406639195     3.1765131255
  112      C      -6.7212021383     1.3167986884     1.8176445114
  113      H      -5.8036567258     0.8971927333     1.4277979295
  114      C     -12.8947266690     4.4848225222    -2.1221752457
  115      H     -12.5698338337     4.4465136626    -3.1617922918
  116      H     -13.1447854255     5.5219243069    -1.8929091397
  117      H     -13.8178022878     3.9071465995    -2.0421529399
  118      C      -5.9225599577     0.6131083394     4.0900128821
  119      H      -5.0660797200     0.2335910740     3.5322598185
  120      H      -5.5506780230     1.3289811773     4.8254697312
  121      H      -6.3529214918    -0.2232103523     4.6434673980
  122      B      -6.8637973231     1.6867979652    -4.8362621745
  123      C      -8.0217251632     2.1409020330    -5.8200096474
  124      C      -8.8997196936     1.2001657288    -6.3825595437
  125      C      -9.8782320768     1.6063862986    -7.2826236484
  126      H     -10.5433723016     0.8761787738    -7.7319910299
  127      C     -10.0219591229     2.9414603865    -7.6131722260
  128      C      -9.1820825776     3.8842129046    -7.0487091050
  129      H      -9.2984222869     4.9288519838    -7.3170769360
  130      C      -8.1782062193     3.4925093621    -6.1685951328
  131      N     -11.0163517849     3.3299674954    -8.5546542488
  132      C     -12.3278909612     3.4928151625    -8.1311036740
  133      C     -10.6617394523     3.4474993280    -9.8921824563
  134      C     -11.6241626606     3.7348489815   -10.8667812916
  135      C     -11.2108880589     3.8492158324   -12.1909053348
  136      H     -11.9495712807     4.0668360301   -12.9527878465
  137      C      -9.8926033459     3.6898571410   -12.5768557965
  138      H      -9.6094874853     3.7885156231   -13.6162524315
  139      C      -8.9492867784     3.3978551409   -11.6046014883
  140      H      -7.9086850948     3.2650728864   -11.8715416224
  141      C      -9.3261455019     3.2724719721   -10.2816665256
  142      H      -8.5726146571     3.0392706435    -9.5430752385
  143      C     -13.3494255134     3.7713649502    -9.0470469780
  144      C     -14.6465253613     3.9187482135    -8.5650609471
  145      H     -15.4444327537     4.1276641427    -9.2676850173
  146      C     -14.9612277343     3.8018841435    -7.2231989134
  147      H     -15.9828022073     3.9198867075    -6.8875535063
  148      C     -13.9413823310     3.5289246639    -6.3249313225
  149      H     -14.1520486682     3.4298754363    -5.2674973898
  150      C     -12.6427452228     3.3772328196    -6.7699938806
  151      H     -11.8637167994     3.1608538259    -6.0528163123
  152      C      -8.8533410529    -0.2562609856    -5.9983501532
  153      H      -9.1235138183    -0.8700331085    -6.8622429626
  154      H      -7.8388086709    -0.5472691218    -5.7204991542
  155      C      -7.2204198526     4.5417548111    -5.6702022898
  156      H      -6.8512875254     4.2790306313    -4.6769579120
  157      H      -7.7448241641     5.4950756068    -5.5626754614
  158      C     -13.0995660976     3.9000489358   -10.5413235021
  159      C      -9.8038776615    -0.5665824557    -4.8434919812
  160      H      -9.5399035389     0.0080056656    -3.9552875651
  161      H      -9.7664995775    -1.6242308685    -4.5788979797
  162      H     -10.8349221101    -0.3230158150    -5.1053164942
  163      C      -6.0400517823     4.7179817835    -6.6240284908
  164      H      -5.4807434074     3.7880495832    -6.7277811921
  165      H      -6.3807956824     5.0144973037    -7.6174164088
  166      H      -5.3513427789     5.4831853517    -6.2628701055
  167      C     -13.8964954144     2.8074099596   -11.2766154883
  168      H     -13.5815588986     1.8146113109   -10.9550420972
  169      H     -13.7534395477     2.8723061540   -12.3561558880
  170      H     -14.9661740098     2.9005302601   -11.0838780570
  171      C     -13.5734926146     5.2841710801   -11.0162594976
  172      H     -14.6355861760     5.4291187644   -10.8168705701
  173      H     -13.4299366115     5.4063371232   -12.0902900828
  174      H     -13.0241305971     6.0780362311   -10.5105742569
 ----------------------------------------------------------------

   19   -3629.1873551994      5.78e-09  Convergence criterion met
 Total energy in the final basis set =    -3629.1873551994
 Final energy is   -3629.18735519937
 **  OPTIMIZATION CONVERGED  **

                    Orbital Energies (a.u.)
 --------------------------------------------------------------

 Alpha MOs
 -- Occupied --
-14.796 -14.662 -10.554 -10.554 -10.519 -10.519 -10.518 -10.512
-10.500 -10.500 -10.499 -10.499 -10.493 -10.492 -10.490 -10.489
-10.481 -10.480 -10.465 -10.465 -10.463 -10.463 -10.463 -10.461
-10.461 -10.458 -10.450 -10.449 -10.448 -10.448 -10.448 -10.447
-10.445 -10.445 -10.445 -10.444 -10.443 -10.443 -10.439 -10.439
-10.439 -10.438 -10.437 -10.436 -10.436 -10.435 -10.435 -10.435
-10.435 -10.434 -10.434 -10.433 -10.433 -10.433 -10.433 -10.432
-10.432 -10.432 -10.432 -10.431 -10.431 -10.431 -10.430 -10.430
-10.429 -10.428 -10.427 -10.427 -10.427 -10.425 -10.425 -10.422
-10.422 -10.421 -10.420 -10.420 -10.420 -10.418 -10.418 -10.416
-10.415 -10.415 -10.414 -10.414 -10.413 -10.405 -10.403 -10.402
-10.396 -10.395 -10.393 -10.393  -6.888  -6.886  -1.179  -1.074
 -1.022  -1.018  -0.979  -0.979  -0.975  -0.963  -0.955  -0.947
 -0.947  -0.946  -0.933  -0.929  -0.927  -0.912  -0.897  -0.895
 -0.893  -0.893  -0.886  -0.885  -0.871  -0.870  -0.857  -0.856
 -0.855  -0.848  -0.847  -0.846  -0.839  -0.837  -0.836  -0.824
 -0.816  -0.813  -0.809  -0.805  -0.804  -0.797  -0.794  -0.793
 -0.784  -0.784  -0.784  -0.781  -0.773  -0.773  -0.771  -0.758
 -0.742  -0.741  -0.733  -0.724  -0.722  -0.710  -0.708  -0.704
 -0.698  -0.697  -0.694  -0.693  -0.684  -0.684  -0.677  -0.674
 -0.672  -0.669  -0.669  -0.663  -0.658  -0.650  -0.647  -0.643
 -0.641  -0.631  -0.624  -0.619  -0.612  -0.606  -0.604  -0.603
 -0.594  -0.593  -0.593  -0.589  -0.588  -0.583  -0.577  -0.575
 -0.569  -0.561  -0.550  -0.548  -0.546  -0.545  -0.544  -0.538
 -0.538  -0.533  -0.532  -0.529  -0.527  -0.524  -0.523  -0.523
 -0.516  -0.514  -0.513  -0.512  -0.511  -0.508  -0.504  -0.502
 -0.498  -0.496  -0.495  -0.493  -0.492  -0.487  -0.485  -0.485
 -0.484  -0.481  -0.479  -0.478  -0.475  -0.475  -0.474  -0.473
 -0.472  -0.472  -0.469  -0.469  -0.468  -0.468  -0.468  -0.466
 -0.466  -0.465  -0.464  -0.458  -0.457  -0.456  -0.455  -0.454
 -0.454  -0.452  -0.450  -0.447  -0.446  -0.446  -0.441  -0.440
 -0.439  -0.434  -0.433  -0.433  -0.431  -0.430  -0.428  -0.427
 -0.425  -0.424  -0.421  -0.416  -0.416  -0.414  -0.414  -0.413
 -0.409  -0.408  -0.406  -0.405  -0.404  -0.401  -0.400  -0.398
 -0.396  -0.395  -0.395  -0.394  -0.393  -0.393  -0.386  -0.386
 -0.385  -0.383  -0.378  -0.374  -0.373  -0.371  -0.371  -0.368
 -0.365  -0.361  -0.359  -0.359  -0.355  -0.354  -0.347  -0.345
 -0.339  -0.337  -0.336  -0.330  -0.317  -0.312  -0.312  -0.310
 -0.309  -0.307  -0.300  -0.299  -0.293  -0.286  -0.285  -0.277
 -0.272  -0.267  -0.259  -0.258  -0.256  -0.252  -0.240  -0.232
 -0.230  -0.209  -0.133

 Beta MOs
 -- Occupied --
-14.784 -14.662 -10.556 -10.556 -10.519 -10.516 -10.515 -10.512
-10.498 -10.497 -10.496 -10.496 -10.495 -10.494 -10.492 -10.491
-10.481 -10.480 -10.465 -10.464 -10.463 -10.463 -10.463 -10.461
-10.461 -10.458 -10.450 -10.449 -10.448 -10.448 -10.448 -10.447
-10.446 -10.445 -10.444 -10.444 -10.443 -10.443 -10.439 -10.439
-10.439 -10.438 -10.436 -10.436 -10.436 -10.435 -10.435 -10.435
-10.435 -10.434 -10.433 -10.433 -10.433 -10.433 -10.432 -10.432
-10.432 -10.432 -10.432 -10.431 -10.431 -10.431 -10.430 -10.430
-10.429 -10.427 -10.427 -10.427 -10.427 -10.425 -10.425 -10.422
-10.422 -10.421 -10.420 -10.420 -10.420 -10.418 -10.418 -10.416
-10.415 -10.415 -10.414 -10.414 -10.413 -10.405 -10.403 -10.402
-10.395 -10.395 -10.392 -10.392  -6.885  -6.883  -1.160  -1.074
 -1.017  -1.015  -0.979  -0.978  -0.973  -0.960  -0.955  -0.947
 -0.947  -0.946  -0.933  -0.928  -0.926  -0.909  -0.897  -0.895
 -0.891  -0.890  -0.886  -0.885  -0.870  -0.867  -0.856  -0.855
 -0.854  -0.848  -0.846  -0.841  -0.839  -0.836  -0.836  -0.824
 -0.813  -0.812  -0.807  -0.805  -0.804  -0.795  -0.792  -0.792
 -0.784  -0.784  -0.783  -0.780  -0.773  -0.770  -0.768  -0.758
 -0.742  -0.741  -0.730  -0.722  -0.719  -0.710  -0.707  -0.703
 -0.697  -0.697  -0.694  -0.692  -0.683  -0.683  -0.675  -0.672
 -0.672  -0.668  -0.666  -0.663  -0.658  -0.649  -0.647  -0.643
 -0.637  -0.630  -0.624  -0.617  -0.612  -0.604  -0.603  -0.602
 -0.593  -0.591  -0.589  -0.588  -0.581  -0.576  -0.575  -0.571
 -0.569  -0.558  -0.549  -0.547  -0.545  -0.544  -0.537  -0.537
 -0.535  -0.532  -0.531  -0.528  -0.526  -0.524  -0.523  -0.522
 -0.516  -0.513  -0.512  -0.512  -0.508  -0.503  -0.501  -0.497
 -0.495  -0.495  -0.492  -0.491  -0.490  -0.487  -0.485  -0.484
 -0.483  -0.481  -0.479  -0.478  -0.475  -0.474  -0.473  -0.473
 -0.471  -0.470  -0.468  -0.468  -0.468  -0.468  -0.467  -0.466
 -0.464  -0.463  -0.459  -0.458  -0.456  -0.456  -0.455  -0.454
 -0.453  -0.452  -0.449  -0.445  -0.445  -0.441  -0.440  -0.439
 -0.437  -0.433  -0.432  -0.432  -0.431  -0.428  -0.426  -0.425
 -0.423  -0.420  -0.416  -0.415  -0.414  -0.413  -0.412  -0.411
 -0.408  -0.408  -0.406  -0.404  -0.402  -0.400  -0.399  -0.396
 -0.395  -0.395  -0.393  -0.393  -0.393  -0.392  -0.386  -0.385
 -0.383  -0.381  -0.377  -0.374  -0.372  -0.370  -0.370  -0.368
 -0.364  -0.361  -0.359  -0.359  -0.354  -0.347  -0.341  -0.337
 -0.334  -0.332  -0.331  -0.322  -0.314  -0.311  -0.308  -0.307
 -0.306  -0.306  -0.299  -0.292  -0.286  -0.284  -0.277  -0.272
 -0.261  -0.259  -0.256  -0.255  -0.243  -0.235  -0.230  -0.224
 -0.209

          Ground-State Mulliken Net Atomic Charges

     Atom                 Charge (a.u.)    Spin (a.u.)
  --------------------------------------------------------
      1 N                    -0.603444       0.448373
      2 C                     0.295770      -0.102950
      3 C                     0.294171      -0.102118
      4 C                     0.191699       0.230705
      5 C                    -0.302391      -0.150803
      6 H                     0.255441       0.007134
      7 C                    -0.200789       0.251575
      8 H                     0.268914      -0.013496
      9 C                    -0.243426      -0.131670
     10 H                     0.277973       0.005934
     11 C                    -0.268195       0.183578
     12 H                     0.316884      -0.009898
     13 C                     0.192091       0.230257
     14 C                    -0.303117      -0.150773
     15 H                     0.255700       0.007139
     16 C                    -0.200164       0.251727
     17 H                     0.268906      -0.013537
     18 C                    -0.242790      -0.132818
     19 H                     0.272193       0.006067
     20 C                    -0.264396       0.184676
     21 H                     0.312056      -0.009919
     22 C                     0.123213      -0.027043
     23 C                    -0.299319       0.015426
     24 H                     0.241623      -0.000238
     25 C                    -0.286749       0.016034
     26 H                     0.239151      -0.000362
     27 C                     0.030634       0.002380
     28 C                     0.035707       0.003850
     29 C                    -0.147429      -0.026488
     30 C                    -0.537794       0.004507
     31 H                     0.223582       0.000620
     32 H                     0.280279      -0.002283
     33 C                    -0.545391       0.004705
     34 H                     0.281463      -0.002716
     35 H                     0.225359       0.000722
     36 C                    -0.236993      -0.038287
     37 C                    -0.655768      -0.000170
     38 H                     0.229695       0.000051
     39 H                     0.259181      -0.000666
     40 H                     0.200293      -0.000080
     41 C                    -0.657181       0.000134
     42 H                     0.265187      -0.001018
     43 H                     0.227390       0.000049
     44 H                     0.200509      -0.000096
     45 C                    -0.605293       0.022935
     46 H                     0.247728      -0.000938
     47 H                     0.243439       0.000525
     48 H                     0.244156       0.000409
     49 C                    -0.611581       0.020307
     50 H                     0.250411      -0.000714
     51 H                     0.243168       0.000131
     52 H                     0.243711       0.000172
     53 B                     0.477687       0.399288
     54 C                    -0.085720       0.006255
     55 C                    -0.446041       0.018463
     56 H                     0.203099      -0.002295
     57 C                     0.100704       0.026702
     58 C                     0.087800       0.089299
     59 C                    -0.443649      -0.046827
     60 H                     0.228860       0.001810
     61 C                    -0.098644       0.054561
     62 C                     0.114072      -0.007098
     63 C                     0.065991       0.004020
     64 C                    -0.319873      -0.001685
     65 H                     0.218136       0.000011
     66 C                    -0.282069       0.009069
     67 H                     0.218900      -0.000600
     68 C                     0.134947      -0.003034
     69 C                    -0.404904       0.006699
     70 H                     0.209116      -0.000357
     71 C                     0.121021      -0.030636
     72 C                    -0.408939       0.026971
     73 H                     0.227020      -0.001649
     74 C                     0.139612      -0.018639
     75 C                    -0.283798       0.031418
     76 H                     0.219730      -0.001903
     77 C                    -0.320138      -0.019144
     78 H                     0.214107       0.000995
     79 C                     0.061808       0.029208
     80 C                    -0.725665       0.001475
     81 H                     0.247103      -0.000087
     82 H                     0.232690      -0.000701
     83 H                     0.236329      -0.000525
     84 C                    -0.720148       0.000153
     85 H                     0.227574      -0.000037
     86 H                     0.227736      -0.000100
     87 H                     0.241177      -0.000120
     88 C                    -0.083769       0.003298
     89 C                    -0.448626       0.018914
     90 H                     0.206547      -0.002281
     91 C                     0.097665       0.027673
     92 C                     0.087953       0.088161
     93 C                    -0.444586      -0.044913
     94 H                     0.229070       0.001688
     95 C                    -0.100134       0.052726
     96 C                     0.120678      -0.030205
     97 C                    -0.406428       0.026451
     98 H                     0.225148      -0.001606
     99 C                     0.138304      -0.018351
    100 C                    -0.283391       0.030993
    101 H                     0.219546      -0.001877
    102 C                    -0.320342      -0.018825
    103 H                     0.214460       0.000976
    104 C                     0.063486       0.028740
    105 C                     0.109844      -0.007196
    106 C                     0.068356       0.004211
    107 C                    -0.320030      -0.001891
    108 H                     0.217610       0.000023
    109 C                    -0.281795       0.009233
    110 H                     0.219074      -0.000608
    111 C                     0.136529      -0.003126
    112 C                    -0.399169       0.006819
    113 H                     0.208046      -0.000307
    114 C                    -0.721590       0.001448
    115 H                     0.241241      -0.000080
    116 H                     0.235958      -0.000568
    117 H                     0.234423      -0.000648
    118 C                    -0.718244       0.000236
    119 H                     0.221808      -0.000027
    120 H                     0.234021      -0.000106
    121 H                     0.238225      -0.000112
    122 B                     0.523689       0.296370
    123 C                    -0.187219      -0.028166
    124 C                     0.044001       0.005186
    125 C                    -0.297288      -0.002196
    126 H                     0.226582       0.000446
    127 C                     0.188136       0.002656
    128 C                    -0.312682      -0.002140
    129 H                     0.226942       0.000418
    130 C                     0.041664       0.005114
    131 N                    -0.717384      -0.000147
    132 C                     0.312927       0.000061
    133 C                     0.311438       0.000064
    134 C                     0.133046      -0.000016
    135 C                    -0.303175       0.000018
    136 H                     0.218355      -0.000000
    137 C                    -0.247039      -0.000021
    138 H                     0.220828       0.000002
    139 C                    -0.248806       0.000014
    140 H                     0.231888      -0.000001
    141 C                    -0.322577      -0.000008
    142 H                     0.265621      -0.000008
    143 C                     0.132109      -0.000014
    144 C                    -0.303220       0.000014
    145 H                     0.218328      -0.000000
    146 C                    -0.246418      -0.000017
    147 H                     0.221283       0.000002
    148 C                    -0.248186       0.000012
    149 H                     0.229277      -0.000001
    150 C                    -0.320963      -0.000000
    151 H                     0.262442      -0.000010
    152 C                    -0.541092       0.003098
    153 H                     0.226027       0.000398
    154 H                     0.262657      -0.002190
    155 C                    -0.542428       0.003065
    156 H                     0.261216      -0.002224
    157 H                     0.226067       0.000443
    158 C                    -0.203573       0.000003
    159 C                    -0.652019      -0.000201
    160 H                     0.245824      -0.000288
    161 H                     0.216333       0.000003
    162 H                     0.212510      -0.000061
    163 C                    -0.654985      -0.000055
    164 H                     0.249550      -0.000398
    165 H                     0.212673      -0.000078
    166 H                     0.214417      -0.000005
    167 C                    -0.606989      -0.000001
    168 H                     0.235187       0.000000
    169 H                     0.219617      -0.000000
    170 H                     0.219434      -0.000000
    171 C                    -0.610872      -0.000001
    172 H                     0.219958      -0.000000
    173 H                     0.219868      -0.000000
    174 H                     0.236035       0.000000
  --------------------------------------------------------
  Sum of atomic charges =    -0.000000

                    Cartesian Multipole Moments
 -----------------------------------------------------------------
    Charge (ESU x 10^10)
                -0.0000
    Dipole Moment (Debye)
         X      27.6540      Y      -7.2429      Z      19.1383
       Tot      34.4017
    Quadrupole Moments (Debye-Ang)
        XX    -665.6047     XY      25.4930     YY    -567.6858
        XZ    -101.2771     YZ      17.3229     ZZ    -591.6292

 Total job time:  216288.03s(wall), 1497344.41s(cpu)
        *  Thank you very much for using Q-Chem.  Have a nice day.  *
