 Q-Chem 5.1, Q-Chem, Inc., Pleasanton, CA (2018)
 Q-Chem 5.1.1 for Intel X86 EM64T Linux

User input:
--------------------------------------------------------------
$rem
threads 8
jobtype opt
method PBEh-3c
basis def2-mSVP
mem_static      1024
mem_total       8000
sym_ignore      true
unrestricted true
scf_algorithm   diis
scf_max_cycles  250
solvent_method  pcm
geom_opt_tol_energy 25
geom_opt_tol_gradient 75
$end

$pcm
theory  iefpcm
HPoints 194
HeavyPoints 194
$end

$solvent
dielectric      2.03
$end

$molecule
read uincoords.mol
$end

--------------------------------------------------------------

   22   -3629.1730866916      9.67e-09  Convergence criterion met
 Total energy in the final basis set =    -3629.1730866916
   21   -3629.1798003496      8.58e-09  Convergence criterion met
 Total energy in the final basis set =    -3629.1798003496
   21   -3629.1805482851      7.83e-09  Convergence criterion met
 Total energy in the final basis set =    -3629.1805482851
   21   -3629.1794871795      7.45e-09  Convergence criterion met
 Total energy in the final basis set =    -3629.1794871795
   21   -3629.1788188808      7.77e-09  Convergence criterion met
 Total energy in the final basis set =    -3629.1788188808
   21   -3629.1804014323      6.86e-09  Convergence criterion met
 Total energy in the final basis set =    -3629.1804014323
   21   -3629.1817743074      8.13e-09  Convergence criterion met
 Total energy in the final basis set =    -3629.1817743074
   21   -3629.1811696446      7.58e-09  Convergence criterion met
   19   -3629.1820891771      5.36e-09  Convergence criterion met
 Total energy in the final basis set =    -3629.1820891771
   19   -3629.1820736801      5.37e-09  Convergence criterion met
 Total energy in the final basis set =    -3629.1820736801
   19   -3629.1820671283      5.52e-09  Convergence criterion met
 Total energy in the final basis set =    -3629.1820671283
   19   -3629.1820667482      5.56e-09  Convergence criterion met
 Total energy in the final basis set =    -3629.1820667482
   19   -3629.1820679013      5.57e-09  Convergence criterion met
 Total energy in the final basis set =    -3629.1820679013
   19   -3629.1820675363      5.56e-09  Convergence criterion met
 Total energy in the final basis set =    -3629.1820675363

             Standard Nuclear Orientation (Angstroms)
    I     Atom           X                Y                Z
 ----------------------------------------------------------------
    1      N       0.1580365131    -0.0671486077     0.1327423496
    2      C       0.1053588790    -0.2864917325     1.4896574825
    3      C       1.3268378485    -0.1311259626    -0.5905308309
    4      C       2.5379386142    -0.4539024728     0.0487375121
    5      C       3.6841996177    -0.4966319612    -0.7319668782
    6      H       4.6315407494    -0.7470901555    -0.2741468956
    7      C       3.6506509350    -0.2403972749    -2.0931130191
    8      H       4.5641514044    -0.2841441969    -2.6702262131
    9      C       2.4421191853     0.0598963357    -2.7182449984
   10      H       2.4045306112     0.2485834916    -3.7821620718
   11      C       1.2865729499     0.1110750976    -1.9804291693
   12      H       0.3508246247     0.3363669019    -2.4702473308
   13      C       1.2673623406    -0.6539816521     2.1929719947
   14      C       1.1416368428    -0.8998096568     3.5521195119
   15      H       2.0106489937    -1.1992220754     4.1221361639
   16      C      -0.0736776238    -0.7770213100     4.2064546254
   17      H      -0.1339821201    -0.9787094390     5.2671181646
   18      C      -1.2121591712    -0.3902324787     3.5020958671
   19      H      -2.1607384623    -0.2806023831     4.0091437295
   20      C      -1.1300989070    -0.1454318014     2.1546349888
   21      H      -2.0102655835     0.1569091238     1.6066606561
   22      C      -1.0677157574     0.1918080998    -0.5754066768
   23      C      -1.4252743492     1.4910549361    -0.8784490405
   24      H      -0.8022475817     2.3187516187    -0.5583207552
   25      C      -1.8411165201    -0.8837938425    -0.9680086796
   26      H      -1.5383489470    -1.8942465441    -0.7159124110
   27      C      -2.5838847740     1.7231596085    -1.6138544145
   28      C      -2.9976884594    -0.6593700170    -1.7072129069
   29      C      -3.3772908309     0.6486772225    -2.0546399877
   30      C      -3.8395874269    -1.8457568581    -2.0962745703
   31      H      -3.2042264058    -2.7308230894    -2.1896832315
   32      H      -4.2850028616    -1.6795682752    -3.0779486644
   33      C      -2.9145946300     3.1424656034    -1.9906191037
   34      H      -3.9963364663     3.2742693806    -2.0262485067
   35      H      -2.5432134563     3.8212358799    -1.2182006085
   36      C       2.6063702514    -0.8019050976     1.5145218715
   37      C      -4.9472014828    -2.1208658692    -1.0815981460
   38      H      -5.5297521863    -2.9949212539    -1.3736860966
   39      H      -5.6340592738    -1.2775909108    -1.0118672301
   40      H      -4.5384011124    -2.3085058071    -0.0870158659
   41      C      -2.3120677340     3.5279653269    -3.3406860760
   42      H      -2.6900618709     2.8865554710    -4.1363565127
   43      H      -2.5647844879     4.5572917226    -3.5965656705
   44      H      -1.2238122012     3.4435659091    -3.3280815006
   45      C       3.0557136248    -2.2733449728     1.6341699707
   46      H       2.3458263178    -2.9404150078     1.1451721852
   47      H       3.1376130494    -2.5720358161     2.6787190853
   48      H       4.0310630131    -2.4196259047     1.1711568836
   49      C       3.6201560563     0.1279379782     2.2059120005
   50      H       3.3059667682     1.1687123929     2.1345406195
   51      H       3.7269287275    -0.1236620684     3.2600804690
   52      H       4.6062055302     0.0391279689     1.7524031425
   53      B      -4.6302255213     0.9219234817    -2.9922393413
   54      C      -4.4912331525     0.7241783364    -4.5042776793
   55      C      -3.3441954345     0.1674416482    -5.0792321083
   56      H      -2.5321514327    -0.0917833527    -4.4118654008
   57      C      -3.1995007806    -0.0776214977    -6.4394339724
   58      C      -4.2540940387     0.3084858476    -7.3092447496
   59      C      -5.3838265775     0.8932787602    -6.7485850782
   60      H      -6.1935847589     1.2062727294    -7.3946928216
   61      C      -5.5577187015     1.0961316372    -5.3815759149
   62      C      -2.0148904302    -0.7257498482    -6.9909346168
   63      C      -1.8962547046    -0.9130035607    -8.3795297288
   64      C      -0.7373758496    -1.5363587095    -8.8666135382
   65      H      -0.6102165785    -1.6928286003    -9.9283214995
   66      C       0.2595029480    -1.9785737464    -8.0311718065
   67      H       1.1341645555    -2.4620604526    -8.4505367587
   68      C       0.1423954540    -1.8220592838    -6.6471653743
   69      C      -0.9853244170    -1.1979064531    -6.1607216164
   70      H      -1.0776609078    -1.0917486698    -5.0881251989
   71      C      -4.1394323849     0.0832583416    -8.7442247526
   72      C      -5.1797977043     0.4231855568    -9.6260130745
   73      H      -6.0942242326     0.8501126858    -9.2368910552
   74      C      -5.1021379202     0.2234704919   -10.9872528299
   75      C      -3.9280607472    -0.3353727955   -11.5016581463
   76      H      -3.8313636699    -0.5046540154   -12.5677918757
   77      C      -2.8976603874    -0.6842629162   -10.6623983018
   78      H      -2.0148274980    -1.1215512549   -11.1067400244
   79      C      -2.9735837531    -0.4960929712    -9.2738312128
   80      C      -6.2362789539     0.5919912243   -11.8972310140
   81      H      -7.1258272703     0.8792329997   -11.3376093147
   82      H      -5.9688550454     1.4295146099   -12.5454367178
   83      H      -6.5107620065    -0.2397893157   -12.5476822007
   84      C       1.2090036769    -2.3399592981    -5.7279769493
   85      H       0.9955475270    -2.0956379745    -4.6872947138
   86      H       2.1873978636    -1.9234882464    -5.9754371642
   87      H       1.2979492375    -3.4257385078    -5.7975855580
   88      C      -5.9617724540     1.4197961602    -2.4293477824
   89      C      -6.2015677355     1.4960936016    -1.0542018759
   90      H      -5.3952918366     1.1963388353    -0.3962823338
   91      C      -7.4049071408     1.9201036492    -0.5022017604
   92      C      -8.4255948156     2.3742725316    -1.3784921215
   93      C      -8.2009170272     2.2845640882    -2.7480039785
   94      H      -8.9786871999     2.5906834149    -3.4353262158
   95      C      -7.0213870415     1.8030062779    -3.3108899123
   96      C      -9.6638611236     2.9161286058    -0.8364077632
   97      C     -10.6647981332     3.4331922038    -1.6757658192
   98      H     -10.5211730671     3.4252199982    -2.7477114940
   99      C     -11.8401651134     3.9684111973    -1.1964764021
  100      C     -12.0265890973     4.0036443646     0.1893396214
  101      H     -12.9343475681     4.4278416927     0.6023946277
  102      C     -11.0640609937     3.5053556292     1.0342648663
  103      H     -11.2501695512     3.5605920669     2.0975958356
  104      C      -9.8710891532     2.9449332212     0.5530444297
  105      C      -7.6579998934     1.8832064150     0.9325796366
  106      C      -8.8651591214     2.3846767732     1.4499596362
  107      C      -9.0750895009     2.3035702752     2.8346390145
  108      H      -9.9963599979     2.6690089427     3.2658051949
  109      C      -8.1458697020     1.7497338638     3.6820718962
  110      H      -8.3533141225     1.7007478970     4.7446803114
  111      C      -6.9481865839     1.2339828105     3.1780780288
  112      C      -6.7331620533     1.3117771010     1.8198602529
  113      H      -5.8171029609     0.8886198227     1.4303413391
  114      C     -12.8915084008     4.4991550919    -2.1264104226
  115      H     -12.5644063056     4.4629969970    -3.1654117265
  116      H     -13.1418124103     5.5359023195    -1.8958435269
  117      H     -13.8149267264     3.9215127518    -2.0498530781
  118      C      -5.9412068649     0.6005491440     4.0920819317
  119      H      -5.0858462060     0.2179559043     3.5346078078
  120      H      -5.5667581870     1.3135659425     4.8290638283
  121      H      -6.3756679277    -0.2349153375     4.6436665673
  122      B      -6.8650149275     1.6852632307    -4.8329089455
  123      C      -8.0215317569     2.1396019762    -5.8178987701
  124      C      -8.8985963698     1.1988013294    -6.3816064707
  125      C      -9.8761908031     1.6051523492    -7.2824840321
  126      H     -10.5409272801     0.8751583907    -7.7327130228
  127      C     -10.0198844870     2.9402454089    -7.6127761422
  128      C      -9.1806710954     3.8829163477    -7.0472915334
  129      H      -9.2970932226     4.9275237037    -7.3156239678
  130      C      -8.1776865281     3.4912304552    -6.1662600790
  131      N     -11.0137768677     3.3288431823    -8.5546497738
  132      C     -12.3255554199     3.4909443736    -8.1316778723
  133      C     -10.6585051900     3.4471284205    -9.8918478795
  134      C     -11.6204981501     3.7341468244   -10.8668563633
  135      C     -11.2065502283     3.8490432399   -12.1906279302
  136      H     -11.9449849359     4.0663456306   -12.9528465763
  137      C      -9.8880759402     3.6906863402   -12.5758637279
  138      H      -9.6044181552     3.7897909100   -13.6150461885
  139      C      -8.9451833291     3.3992425738   -11.6031592366
  140      H      -7.9043122700     3.2674987770   -11.8695266017
  141      C      -9.3226221785     3.2732275880   -10.2805840440
  142      H      -8.5695651978     3.0405723966    -9.5413578393
  143      C     -13.3467235908     3.7693334627    -9.0479360468
  144      C     -14.6440085467     3.9160217985    -8.5664884066
  145      H     -15.4416435648     4.1248782219    -9.2694363662
  146      C     -14.9592733161     3.7985468713    -7.2249541975
  147      H     -15.9810187759     3.9160050967    -6.8897118467
  148      C     -13.9397912468     3.5255708407    -6.3264296772
  149      H     -14.1509772419     3.4258117325    -5.2691798342
  150      C     -12.6409931427     3.3745982607    -6.7708453499
  151      H     -11.8620589530     3.1580046344    -6.0536705169
  152      C      -8.8522696704    -0.2576441672    -5.9975264791
  153      H      -9.1232687486    -0.8711941550    -6.8613375378
  154      H      -7.8375540402    -0.5490896424    -5.7207929605
  155      C      -7.2203645790     4.5402593975    -5.6665458132
  156      H      -6.8543216572     4.2785262800    -4.6718964655
  157      H      -7.7443644319     5.4940951916    -5.5615354430
  158      C     -13.0961500446     3.8983731814   -10.5420448304
  159      C      -9.8019083371    -0.5677139430    -4.8418950983
  160      H      -9.5364084499     0.0058950256    -3.9535578398
  161      H      -9.7654115643    -1.6255786814    -4.5780381962
  162      H     -10.8329563293    -0.3228564544    -5.1024209311
  163      C      -6.0372168899     4.7142740999    -6.6173109615
  164      H      -5.4777834961     3.7840767777    -6.7175656307
  165      H      -6.3749614348     5.0088670037    -7.6122795356
  166      H      -5.3493799481     5.4800800899    -6.2557318884
  167      C     -13.8919674970     2.8052290556   -11.2777662013
  168      H     -13.5762712881     1.8127708710   -10.9560613474
  169      H     -13.7485448673     2.8700516652   -12.3572659708
  170      H     -14.9618097789     2.8971973871   -11.0853679457
  171      C     -13.5705808895     5.2823212001   -11.0169453156
  172      H     -14.6328225851     5.4269210327   -10.8180629929
  173      H     -13.4264198905     5.4050822722   -12.0908313800
  174      H     -13.0218603362     6.0761942881   -10.5106886590
 ----------------------------------------------------------------

   19   -3629.1820655766      5.59e-09  Convergence criterion met
 Total energy in the final basis set =    -3629.1820655766
 Final energy is   -3629.18206557662
 **  OPTIMIZATION CONVERGED  **

                    Orbital Energies (a.u.)
 --------------------------------------------------------------

 Alpha MOs
 -- Occupied --
-14.798 -14.660 -10.557 -10.557 -10.522 -10.522 -10.522 -10.513
-10.503 -10.503 -10.502 -10.502 -10.496 -10.495 -10.493 -10.492
-10.479 -10.478 -10.469 -10.468 -10.465 -10.464 -10.461 -10.461
-10.461 -10.456 -10.449 -10.448 -10.447 -10.447 -10.446 -10.445
-10.443 -10.443 -10.443 -10.442 -10.441 -10.441 -10.438 -10.437
-10.437 -10.436 -10.435 -10.435 -10.434 -10.434 -10.434 -10.434
-10.433 -10.433 -10.433 -10.432 -10.432 -10.431 -10.431 -10.431
-10.431 -10.431 -10.430 -10.430 -10.430 -10.429 -10.429 -10.429
-10.429 -10.426 -10.426 -10.425 -10.425 -10.423 -10.423 -10.421
-10.420 -10.420 -10.419 -10.419 -10.418 -10.416 -10.416 -10.416
-10.414 -10.414 -10.413 -10.412 -10.411 -10.403 -10.401 -10.400
-10.394 -10.393 -10.391 -10.391  -6.886  -6.884  -1.182  -1.072
 -1.026  -1.022  -0.978  -0.977  -0.976  -0.966  -0.954  -0.946
 -0.945  -0.945  -0.932  -0.927  -0.925  -0.915  -0.896  -0.896
 -0.895  -0.895  -0.885  -0.884  -0.873  -0.869  -0.856  -0.855
 -0.854  -0.849  -0.846  -0.844  -0.837  -0.835  -0.835  -0.822
 -0.816  -0.814  -0.813  -0.803  -0.802  -0.795  -0.793  -0.791
 -0.783  -0.783  -0.782  -0.780  -0.776  -0.774  -0.771  -0.757
 -0.741  -0.740  -0.735  -0.727  -0.722  -0.709  -0.707  -0.704
 -0.696  -0.695  -0.692  -0.692  -0.683  -0.682  -0.678  -0.677
 -0.672  -0.670  -0.667  -0.662  -0.656  -0.649  -0.646  -0.642
 -0.642  -0.629  -0.622  -0.621  -0.611  -0.604  -0.603  -0.601
 -0.596  -0.593  -0.592  -0.591  -0.587  -0.586  -0.580  -0.578
 -0.568  -0.562  -0.551  -0.549  -0.548  -0.544  -0.543  -0.540
 -0.536  -0.535  -0.532  -0.530  -0.526  -0.524  -0.523  -0.522
 -0.515  -0.514  -0.513  -0.512  -0.510  -0.507  -0.502  -0.502
 -0.501  -0.495  -0.494  -0.493  -0.490  -0.488  -0.485  -0.483
 -0.482  -0.482  -0.479  -0.478  -0.477  -0.475  -0.474  -0.473
 -0.472  -0.471  -0.469  -0.469  -0.467  -0.467  -0.467  -0.466
 -0.465  -0.464  -0.463  -0.459  -0.456  -0.455  -0.455  -0.453
 -0.453  -0.451  -0.449  -0.448  -0.445  -0.445  -0.440  -0.439
 -0.439  -0.437  -0.433  -0.432  -0.432  -0.429  -0.429  -0.426
 -0.424  -0.422  -0.421  -0.418  -0.414  -0.414  -0.413  -0.412
 -0.407  -0.406  -0.405  -0.404  -0.402  -0.399  -0.399  -0.397
 -0.395  -0.394  -0.393  -0.393  -0.392  -0.392  -0.385  -0.384
 -0.384  -0.382  -0.376  -0.373  -0.371  -0.370  -0.369  -0.366
 -0.363  -0.360  -0.358  -0.358  -0.357  -0.353  -0.348  -0.345
 -0.341  -0.337  -0.335  -0.328  -0.315  -0.311  -0.310  -0.308
 -0.307  -0.306  -0.302  -0.298  -0.294  -0.285  -0.284  -0.275
 -0.270  -0.265  -0.258  -0.256  -0.254  -0.251  -0.238  -0.231
 -0.228  -0.208  -0.131

 Beta MOs
 -- Occupied --
-14.786 -14.660 -10.559 -10.559 -10.522 -10.519 -10.519 -10.514
-10.501 -10.500 -10.499 -10.499 -10.498 -10.497 -10.495 -10.494
-10.479 -10.478 -10.469 -10.468 -10.464 -10.464 -10.461 -10.461
-10.461 -10.456 -10.449 -10.448 -10.447 -10.447 -10.446 -10.445
-10.444 -10.443 -10.443 -10.442 -10.441 -10.441 -10.438 -10.437
-10.437 -10.436 -10.435 -10.435 -10.434 -10.434 -10.434 -10.434
-10.434 -10.433 -10.433 -10.432 -10.432 -10.431 -10.431 -10.431
-10.431 -10.430 -10.430 -10.430 -10.429 -10.429 -10.429 -10.428
-10.428 -10.426 -10.425 -10.425 -10.425 -10.423 -10.423 -10.421
-10.420 -10.420 -10.419 -10.418 -10.418 -10.416 -10.416 -10.416
-10.414 -10.414 -10.413 -10.412 -10.411 -10.403 -10.401 -10.400
-10.394 -10.393 -10.390 -10.390  -6.884  -6.881  -1.163  -1.072
 -1.020  -1.018  -0.977  -0.977  -0.975  -0.963  -0.953  -0.945
 -0.945  -0.944  -0.931  -0.926  -0.924  -0.912  -0.895  -0.895
 -0.894  -0.892  -0.885  -0.883  -0.870  -0.869  -0.855  -0.854
 -0.852  -0.846  -0.844  -0.843  -0.837  -0.835  -0.834  -0.822
 -0.814  -0.812  -0.811  -0.803  -0.802  -0.793  -0.791  -0.790
 -0.783  -0.782  -0.782  -0.778  -0.773  -0.771  -0.771  -0.757
 -0.741  -0.740  -0.733  -0.725  -0.720  -0.708  -0.706  -0.703
 -0.696  -0.695  -0.692  -0.690  -0.682  -0.681  -0.676  -0.675
 -0.670  -0.669  -0.667  -0.662  -0.656  -0.648  -0.645  -0.641
 -0.638  -0.629  -0.622  -0.618  -0.610  -0.603  -0.601  -0.601
 -0.592  -0.592  -0.590  -0.586  -0.584  -0.580  -0.577  -0.573
 -0.567  -0.559  -0.550  -0.548  -0.544  -0.543  -0.539  -0.538
 -0.535  -0.534  -0.531  -0.529  -0.525  -0.523  -0.523  -0.521
 -0.515  -0.512  -0.511  -0.510  -0.507  -0.502  -0.501  -0.499
 -0.496  -0.494  -0.494  -0.492  -0.490  -0.487  -0.485  -0.483
 -0.482  -0.481  -0.479  -0.477  -0.476  -0.474  -0.473  -0.472
 -0.471  -0.471  -0.468  -0.467  -0.467  -0.466  -0.466  -0.465
 -0.463  -0.462  -0.461  -0.459  -0.455  -0.455  -0.454  -0.453
 -0.452  -0.450  -0.448  -0.444  -0.443  -0.440  -0.440  -0.439
 -0.439  -0.434  -0.432  -0.431  -0.429  -0.429  -0.426  -0.424
 -0.422  -0.419  -0.416  -0.415  -0.414  -0.413  -0.412  -0.411
 -0.407  -0.406  -0.405  -0.402  -0.402  -0.398  -0.398  -0.395
 -0.394  -0.393  -0.392  -0.392  -0.391  -0.391  -0.384  -0.384
 -0.383  -0.380  -0.375  -0.372  -0.371  -0.370  -0.369  -0.366
 -0.363  -0.359  -0.358  -0.357  -0.352  -0.345  -0.344  -0.336
 -0.335  -0.334  -0.333  -0.320  -0.313  -0.309  -0.306  -0.306
 -0.305  -0.304  -0.297  -0.293  -0.285  -0.284  -0.275  -0.270
 -0.259  -0.257  -0.254  -0.254  -0.242  -0.234  -0.228  -0.222
 -0.208

          Ground-State Mulliken Net Atomic Charges

     Atom                 Charge (a.u.)    Spin (a.u.)
  --------------------------------------------------------
      1 N                    -0.602834       0.449342
      2 C                     0.294154      -0.104095
      3 C                     0.292812      -0.102976
      4 C                     0.192029       0.230734
      5 C                    -0.301132      -0.150795
      6 H                     0.252412       0.007153
      7 C                    -0.199322       0.251729
      8 H                     0.266940      -0.013526
      9 C                    -0.242072      -0.132394
     10 H                     0.277332       0.005972
     11 C                    -0.267353       0.184378
     12 H                     0.317691      -0.009928
     13 C                     0.192489       0.230068
     14 C                    -0.301882      -0.150618
     15 H                     0.252710       0.007151
     16 C                    -0.198747       0.251415
     17 H                     0.266842      -0.013542
     18 C                    -0.241238      -0.133450
     19 H                     0.270684       0.006105
     20 C                    -0.263145       0.185378
     21 H                     0.312626      -0.009941
     22 C                     0.122761      -0.026639
     23 C                    -0.299879       0.015666
     24 H                     0.238860      -0.000239
     25 C                    -0.287018       0.016284
     26 H                     0.236282      -0.000363
     27 C                     0.031710       0.002268
     28 C                     0.036661       0.003780
     29 C                    -0.145763      -0.025800
     30 C                    -0.537655       0.004575
     31 H                     0.221735       0.000640
     32 H                     0.282154      -0.002303
     33 C                    -0.545419       0.004759
     34 H                     0.283315      -0.002732
     35 H                     0.223527       0.000751
     36 C                    -0.238057      -0.038282
     37 C                    -0.654810      -0.000162
     38 H                     0.229369       0.000059
     39 H                     0.261088      -0.000685
     40 H                     0.198512      -0.000080
     41 C                    -0.656199       0.000148
     42 H                     0.267618      -0.001050
     43 H                     0.227025       0.000056
     44 H                     0.198605      -0.000095
     45 C                    -0.603666       0.022780
     46 H                     0.247617      -0.000931
     47 H                     0.242291       0.000524
     48 H                     0.243038       0.000408
     49 C                    -0.609834       0.020199
     50 H                     0.250330      -0.000711
     51 H                     0.241975       0.000133
     52 H                     0.242509       0.000176
     53 B                     0.476962       0.403636
     54 C                    -0.085045       0.003778
     55 C                    -0.444793       0.021410
     56 H                     0.200004      -0.002485
     57 C                     0.102890       0.024049
     58 C                     0.089530       0.091514
     59 C                    -0.442461      -0.048874
     60 H                     0.228153       0.001937
     61 C                    -0.098714       0.056219
     62 C                     0.115202      -0.006178
     63 C                     0.067690       0.002976
     64 C                    -0.317496      -0.000956
     65 H                     0.215093      -0.000030
     66 C                    -0.280300       0.008168
     67 H                     0.215779      -0.000549
     68 C                     0.136453      -0.002432
     69 C                    -0.402955       0.005965
     70 H                     0.205758      -0.000310
     71 C                     0.122833      -0.031478
     72 C                    -0.407228       0.027731
     73 H                     0.224901      -0.001700
     74 C                     0.141475      -0.019219
     75 C                    -0.281985       0.032221
     76 H                     0.216861      -0.001954
     77 C                    -0.317719      -0.019779
     78 H                     0.210646       0.001033
     79 C                     0.063325       0.030131
     80 C                    -0.725074       0.001522
     81 H                     0.247072      -0.000089
     82 H                     0.231378      -0.000722
     83 H                     0.235304      -0.000542
     84 C                    -0.719318       0.000106
     85 H                     0.225592      -0.000034
     86 H                     0.225697      -0.000082
     87 H                     0.240521      -0.000100
     88 C                    -0.082823       0.000599
     89 C                    -0.447774       0.021998
     90 H                     0.203936      -0.002476
     91 C                     0.099641       0.024954
     92 C                     0.089660       0.090152
     93 C                    -0.443424      -0.046795
     94 H                     0.228344       0.001806
     95 C                    -0.100164       0.054145
     96 C                     0.122482      -0.030971
     97 C                    -0.404563       0.027143
     98 H                     0.222891      -0.001651
     99 C                     0.140050      -0.018880
    100 C                    -0.281630       0.031708
    101 H                     0.216670      -0.001923
    102 C                    -0.317894      -0.019401
    103 H                     0.211086       0.001011
    104 C                     0.065014       0.029574
    105 C                     0.110789      -0.006240
    106 C                     0.070084       0.003173
    107 C                    -0.317622      -0.001172
    108 H                     0.214540      -0.000017
    109 C                    -0.279979       0.008305
    110 H                     0.215998      -0.000555
    111 C                     0.138150      -0.002512
    112 C                    -0.396672       0.006050
    113 H                     0.204579      -0.000254
    114 C                    -0.720678       0.001491
    115 H                     0.240638      -0.000082
    116 H                     0.234856      -0.000581
    117 H                     0.233331      -0.000670
    118 C                    -0.716857       0.000187
    119 H                     0.219130      -0.000025
    120 H                     0.232605      -0.000085
    121 H                     0.237246      -0.000093
    122 B                     0.527310       0.292914
    123 C                    -0.187836      -0.027891
    124 C                     0.045214       0.005160
    125 C                    -0.295717      -0.002191
    126 H                     0.224745       0.000443
    127 C                     0.187745       0.002653
    128 C                    -0.311378      -0.002136
    129 H                     0.225121       0.000416
    130 C                     0.042915       0.005094
    131 N                    -0.717811      -0.000147
    132 C                     0.313514       0.000064
    133 C                     0.312183       0.000066
    134 C                     0.134282      -0.000020
    135 C                    -0.301035       0.000022
    136 H                     0.215289      -0.000000
    137 C                    -0.244280      -0.000024
    138 H                     0.218059       0.000002
    139 C                    -0.246713       0.000018
    140 H                     0.229415      -0.000002
    141 C                    -0.320799      -0.000012
    142 H                     0.264627      -0.000008
    143 C                     0.133374      -0.000018
    144 C                    -0.301078       0.000018
    145 H                     0.215254      -0.000000
    146 C                    -0.243665      -0.000020
    147 H                     0.218525       0.000002
    148 C                    -0.245859       0.000015
    149 H                     0.226651      -0.000002
    150 C                    -0.318921      -0.000004
    151 H                     0.261420      -0.000010
    152 C                    -0.541099       0.003064
    153 H                     0.224977       0.000393
    154 H                     0.263041      -0.002159
    155 C                    -0.542322       0.003023
    156 H                     0.261499      -0.002189
    157 H                     0.224964       0.000436
    158 C                    -0.204489       0.000004
    159 C                    -0.650934      -0.000196
    160 H                     0.246628      -0.000286
    161 H                     0.215189       0.000002
    162 H                     0.212047      -0.000060
    163 C                    -0.653934      -0.000047
    164 H                     0.250454      -0.000396
    165 H                     0.212195      -0.000077
    166 H                     0.213094      -0.000005
    167 C                    -0.605042      -0.000001
    168 H                     0.235179       0.000000
    169 H                     0.218290      -0.000000
    170 H                     0.218128      -0.000000
    171 C                    -0.608947      -0.000001
    172 H                     0.218599      -0.000000
    173 H                     0.218487      -0.000000
    174 H                     0.236095       0.000000
  --------------------------------------------------------
  Sum of atomic charges =    -0.000000

                    Cartesian Multipole Moments
 -----------------------------------------------------------------
    Charge (ESU x 10^10)
                -0.0000
    Dipole Moment (Debye)
         X      27.2352      Y      -7.0988      Z      18.7981
       Tot      33.8455
    Quadrupole Moments (Debye-Ang)
        XX    -665.5089     XY      25.6489     YY    -567.9611
        XZ    -100.0500     YZ      16.9490     ZZ    -592.8605

 Total job time:  221315.33s(wall), 1533840.90s(cpu)
        *  Thank you very much for using Q-Chem.  Have a nice day.  *
