 Q-Chem 5.0, Q-Chem, Inc., Pleasanton, CA (2017)
 Q-Chem 5.0.1 for Intel X86 EM64T Linux

User input:
--------------------------------------------------------------
$rem
threads 8
jobtype opt
method PBEh-3c
basis def2-mSVP
mem_static      1024
mem_total       8000
sym_ignore      true
unrestricted true
scf_algorithm	diis
scf_max_cycles	250
solvent_method  pcm
geom_opt_tol_energy 25
geom_opt_tol_gradient 75
$end

$pcm
theory  iefpcm
HPoints 194
HeavyPoints 194
$end
$solvent
dielectric      4.33
$end

$molecule
read utLEincoords.mol
$end
--------------------------------------------------------------

   21   -3629.1958603450      9.95E-09 Convergence criterion met
 Total energy in the final basis set = -3629.19586034
   18   -3629.1980897514      9.37E-09 Convergence criterion met
 Total energy in the final basis set = -3629.19808975
   16   -3629.1965265121      9.61E-09 Convergence criterion met
 Total energy in the final basis set = -3629.19652651
   18   -3629.2010276208      7.88E-09 Convergence criterion met
 Total energy in the final basis set = -3629.20102762
   18   -3629.2013774086      6.70E-09 Convergence criterion met
 Total energy in the final basis set = -3629.20137741
   19   -3629.2027414186      9.67E-09 Convergence criterion met
 Total energy in the final basis set = -3629.20274142
   18   -3629.2024680864      7.19E-09 Convergence criterion met
 Total energy in the final basis set = -3629.20246809
   18   -3629.2033139441      8.21E-09 Convergence criterion met
   19   -3629.2031463937      8.83E-09 Convergence criterion met
 Total energy in the final basis set = -3629.20314639
   19   -3629.2031589864      8.69E-09 Convergence criterion met
 Total energy in the final basis set = -3629.20315899
   19   -3629.2031657743      8.72E-09 Convergence criterion met
 Total energy in the final basis set = -3629.20316577
   19   -3629.2031669431      8.79E-09 Convergence criterion met
 Total energy in the final basis set = -3629.20316694
   19   -3629.2031610030      8.83E-09 Convergence criterion met
 Total energy in the final basis set = -3629.20316100
   19   -3629.2031517291      8.82E-09 Convergence criterion met
 Total energy in the final basis set = -3629.20315173

             Standard Nuclear Orientation (Angstroms)
    I     Atom           X                Y                Z
 ----------------------------------------------------------------
    1      C      -6.1208435432     3.9805615869     2.3659509653
    2      C      -6.6295376506     2.6615253053     2.5785538375
    3      B      -5.7405810777     1.4287705024     2.3733422069
    4      C      -4.2594294946     1.6480162747     2.0384191898
    5      C      -3.7414280935     2.9636550170     1.8260922747
    6      B      -4.6678565874     4.1801868049     1.9237996496
    7      C      -2.3982958020     3.0790054520     1.4519428423
    8      C      -1.5538012668     1.9918213176     1.2503805903
    9      C      -2.0842321129     0.6850512668     1.4275870728
   10      C      -3.4089165154     0.5644111716     1.8308670048
   11      C      -7.0181037611     5.0483017592     2.4851678845
   12      C      -8.3622026578     4.8990550645     2.8073825345
   13      C      -8.8633888467     3.5848346554     3.0155176098
   14      C      -7.9808102226     2.5193780636     2.8880802076
   15      H      -6.6343914599     6.0404217292     2.2840071588
   16      C      -6.3866790491    -0.0189582886     2.3471556025
   17      C      -4.2047662520     5.6044322778     1.4052616662
   18      C      -6.7187378060    -0.5856252951     1.1048322753
   19      C      -7.3175339102    -1.8380641994     1.0429464052
   20      C      -7.6248105861    -2.5297393228     2.2000857087
   21      C      -7.3120308729    -1.9831861048     3.4324294506
   22      C      -6.6873739612    -0.7416807103     3.5130871783
   23      C      -6.2965477703    -0.2192849912     4.8693852400
   24      C      -6.5189591008     0.1572122363    -0.1920443640
   25      H      -7.5714903296    -2.2739773643     0.0820436535
   26      N      -8.2884867433    -3.7870579222     2.1123732882
   27      H      -7.5570435729    -2.5322391784     4.3355498879
   28      C      -4.8836925838    -0.6543167177     5.2529149910
   29      H      -7.0039831978    -0.5811103634     5.6201790172
   30      H      -6.3578747489     0.8712096622     4.8871645024
   31      C      -7.7949145354     0.8699530507    -0.6377608459
   32      H      -6.2093727497    -0.5465754966    -0.9699682941
   33      H      -5.7114991393     0.8842681935    -0.0991289760
   34      C      -3.8706455895     6.6520849686     2.2790070267
   35      C      -3.5366206705     7.9090388461     1.7818880331
   36      C      -3.5359598058     8.1078669472     0.4156144811
   37      C      -3.8513084407     7.0967457711    -0.4698999107
   38      C      -4.1881903779     5.8403254334     0.0181316922
   39      C      -4.5848954234     4.7807663196    -0.9801548590
   40      C      -3.8258590075     6.4233605620     3.7659446579
   41      H      -3.2827335408     8.7211926980     2.4535173483
   42      N      -3.2119224001     9.3999259480    -0.1224698286
   43      H      -3.8399564387     7.2879104354    -1.5374745924
   44      H      -4.0782969529     4.9759837532    -1.9291129255
   45      C      -6.0935270496     4.7325359401    -1.2191350771
   46      H      -4.2437370724     3.8004175375    -0.6463227116
   47      H      -4.6537959086     5.7780039409     4.0658799120
   48      H      -3.9669246739     7.3726060805     4.2891541427
   49      C      -2.5088249566     5.7894716043     4.2081776920
   50      C      -0.1634456904     2.1509058684     0.8380269309
   51      C     -10.2753392587     3.3750497021     3.3090619185
   52      C     -10.7926822596     2.0894017923     3.5479623451
   53      C       1.7176753854     3.6108240263     0.2879783282
   54      C       2.4904800678     2.4761745148     0.0207586820
   55      C     -12.9946862427     2.9535767401     3.8099250337
   56      C     -12.1278068301     1.8557086863     3.7983511323
   57      C     -12.6472171871     0.4718103911     4.0539615315
   58      H      -3.8342347875    -0.4202825468     1.9742967833
   59      C       0.4132100456     3.4228379488     0.6902865116
   60      H      -2.0182337850     4.0797698837     1.2904598597
   61      C      -1.2619926378    -0.4849201241     1.1472788652
   62      C       0.2830395175    -2.7380137466     0.5494726801
   63      C      -1.0363399192    -2.9137419262     0.9793590637
   64      C      -1.7761913124    -1.7874491942     1.2681605669
   65      C      -1.6224758916    -4.2874283042     1.1217635702
   66      H      -2.7992459312    -1.9345626262     1.5873618641
   67      H      -8.3522074450     1.5098749866     3.0073289197
   68      H     -10.1304389348     1.2341527736     3.5429784218
   69      C      -9.2732845065     6.0359446180     2.8991462273
   70      C      -8.8154840530     7.3554015086     2.7474654724
   71      C      -9.6530823720     8.4488586656     2.8042707895
   72      C     -11.0155650894     8.2205459741     3.0203771699
   73      C      -9.1315666367     9.8453366751     2.6411664036
   74      H      -7.7610971239     7.5370330690     2.5867311719
   75      C     -10.6434395463     5.8226195074     3.1368066500
   76      C       0.6262622842     1.0178502877     0.5710017015
   77      C       0.0647927768    -0.3231456769     0.7144569364
   78      C     -11.1554834133     4.4701729665     3.3428065506
   79      C       1.9535986093     1.2186849285     0.1623189535
   80      C       0.8118129058    -1.4755545593     0.4228371991
   81      H       0.8928478693    -3.6007211949     0.3078669744
   82      H       1.8336223707    -1.3922163631     0.0808663067
   83      H      -0.1795215288     4.3031674362     0.8992558397
   84      C       2.3012670824     4.9851901270     0.1461939156
   85      H       3.5204413644     2.5847837750    -0.2982129442
   86      H       2.5903243596     0.3721300069    -0.0523736043
   87      C     -11.4896950857     6.9412007492     3.1843739915
   88      H     -12.5488067964     6.8153524699     3.3589980874
   89      H     -11.7042851024     9.0559737316     3.0677129205
   90      C     -12.5150795261     4.2223953272     3.5902675216
   91      H     -14.0517672016     2.8053250129     3.9978805182
   92      H     -13.2244011290     5.0374855436     3.6149683446
   93      H       3.1035113433     5.1513091637     0.8674697319
   94      H       1.5477984769     5.7563749984     0.3079741705
   95      H       2.7260026696     5.1363417974    -0.8475691554
   96      H      -1.4735105585    -4.8804942153     0.2182088628
   97      H      -2.6938413180    -4.2461384528     1.3173072527
   98      H      -1.1564014412    -4.8332958879     1.9446181438
   99      H     -13.1036310834     0.3966386786     5.0426129619
  100      H     -13.4144623580     0.1961651698     3.3278010490
  101      H     -11.8552025295    -0.2742164281     3.9984657257
  102      H      -9.4072914184    10.4738734031     3.4893813472
  103      H      -8.0449877232     9.8611390150     2.5577805505
  104      H      -9.5418889525    10.3193272694     1.7468222158
  105      H      -6.3388559510     3.9713895866    -1.9609429889
  106      H      -6.4699728806     5.6896385939    -1.5840968812
  107      H      -6.6303856557     4.4865551967    -0.3038084415
  108      H      -7.6385054605     1.4022354779    -1.5774165284
  109      H      -8.1182798347     1.5975514521     0.1074670099
  110      H      -8.6111326496     0.1610051171    -0.7868464677
  111      H      -2.3673700688     4.8139529342     3.7429301447
  112      H      -2.4920766754     5.6450513936     5.2887777949
  113      H      -1.6577724913     6.4177003079     3.9400115595
  114      H      -4.1519171110    -0.2731346335     4.5400187437
  115      H      -4.7993400925    -1.7422141830     5.2678866041
  116      H      -4.6110319567    -0.2822703340     6.2413317757
  117      C      -4.2352803454    10.2924438020    -0.3318868675
  118      C      -3.9649542302    11.5591290609    -0.8825725244
  119      C      -2.5730751584    11.9896065714    -1.2702697915
  120      C      -1.5552814101    10.9054787703    -1.0142048632
  121      C      -2.1926527189    13.2353156624    -0.4461071187
  122      C      -2.5655120882    12.3305670585    -2.7744047914
  123      C      -1.9048021195     9.6608829364    -0.4571721266
  124      H      -2.8444502054    11.4645857991    -3.3743503746
  125      H      -1.5780946343    12.6632710712    -3.0912012357
  126      H      -3.2651791246    13.1365933055    -2.9918276772
  127      C      -5.0406126570    12.4135709729    -1.0797164714
  128      C      -6.3372632367    12.0413786474    -0.7649171274
  129      C      -6.5931662792    10.7795430754    -0.2309548618
  130      C      -5.5556107727     9.9098873435    -0.0094754577
  131      H      -5.7590279658     8.9311408284     0.3994493760
  132      H      -7.1509866019    12.7315949537    -0.9411828138
  133      H      -7.6038626880    10.4786007562     0.0069422571
  134      H      -4.8728251656    13.3960360547    -1.4995758370
  135      C      -0.2220157754    11.1099042396    -1.3373667061
  136      C      -0.9322745299     8.6612608893    -0.2470214119
  137      C       0.3753176143     8.9000546016    -0.5860910904
  138      C       0.7363238313    10.1305721453    -1.1323562910
  139      H      -1.2124066283     7.7062752029     0.1721400414
  140      H       1.1179570889     8.1302184211    -0.4288971373
  141      H       0.0842679353    12.0542582134    -1.7663325160
  142      H       1.7658045419    10.3244018299    -1.4006065217
  143      C      -9.6688288997    -3.8037557976     1.9545639303
  144      C      -7.5393317824    -4.9559550511     2.0922173822
  145      C      -8.1604382709    -6.2040718796     1.9578235226
  146      C      -9.6670516808    -6.3632461284     1.8278786253
  147      C     -10.3611417596    -5.0124116980     1.8156722288
  148      C      -9.9859818070    -7.1056797717     0.5179926510
  149      C     -10.3885813364    -2.5999765090     1.9373585535
  150      C     -11.7611920146    -2.5925528723     1.7783131200
  151      C     -12.4564748989    -3.7839654881     1.6421453905
  152      C     -11.7448506295    -4.9698512532     1.6653070162
  153      H     -12.2896568092    -5.9006001883     1.5611280476
  154      H     -12.2847007744    -1.6452117992     1.7619570685
  155      H     -13.5313358608    -3.7919510511     1.5194002681
  156      H      -9.8715631777    -1.6573631985     2.0445829546
  157      C      -6.1438040842    -4.8957192237     2.2072637081
  158      C      -5.3792911147    -6.0467611150     2.1986435357
  159      C      -5.9840116551    -7.2878459128     2.0721386946
  160      C      -7.3612188046    -7.3432570307     1.9527611067
  161      H      -7.8337262924    -8.3131167739     1.8540705012
  162      H      -5.6506093455    -3.9392415755     2.3076565098
  163      H      -4.3036810882    -5.9670231055     2.2929625617
  164      H      -5.3965756553    -8.1962223774     2.0659495552
  165      H      -2.1976594183    13.0160518964     0.6213012216
  166      H      -2.8932423331    14.0489607645    -0.6313934946
  167      H      -1.1993487626    13.5892709268    -0.7193926244
  168      H      -9.6346368746    -6.5414048314    -0.3460118155
  169      H     -11.0587935383    -7.2636777256     0.4027714509
  170      H      -9.5140024188    -8.0885738237     0.4934053053
  171      C     -10.1909256799    -7.1858885799     3.0185436064
  172      H      -9.9807316366    -6.6832856421     3.9628446236
  173      H      -9.7270998839    -8.1728285185     3.0512272906
  174      H     -11.2694667721    -7.3354979544     2.9500926595
 ----------------------------------------------------------------

   19   -3629.2031515613      8.85E-09 Convergence criterion met
 Total energy in the final basis set = -3629.20315156
 Final energy is   -3629.20315156125
 **  OPTIMIZATION CONVERGED  **

                    Orbital Energies (a.u.)
 --------------------------------------------------------------

 Alpha MOs
 -- Occupied --
-14.787 -14.669 -10.546 -10.546 -10.510 -10.510 -10.509 -10.507
-10.492 -10.491 -10.490 -10.490 -10.487 -10.487 -10.483 -10.483
-10.481 -10.480 -10.470 -10.462 -10.461 -10.460 -10.459 -10.458
-10.454 -10.454 -10.454 -10.454 -10.453 -10.453 -10.453 -10.453
-10.451 -10.451 -10.451 -10.451 -10.448 -10.448 -10.445 -10.445
-10.443 -10.443 -10.443 -10.442 -10.441 -10.440 -10.440 -10.440
-10.439 -10.439 -10.439 -10.438 -10.438 -10.438 -10.438 -10.438
-10.437 -10.437 -10.436 -10.435 -10.434 -10.434 -10.433 -10.433
-10.433 -10.432 -10.432 -10.430 -10.430 -10.430 -10.429 -10.429
-10.428 -10.426 -10.426 -10.424 -10.424 -10.424 -10.424 -10.420
-10.419 -10.419 -10.419 -10.417 -10.414 -10.412 -10.409 -10.408
-10.402 -10.402 -10.399 -10.399  -6.894  -6.891  -1.172  -1.080
 -1.014  -1.010  -0.985  -0.984  -0.972  -0.961  -0.954  -0.952
 -0.951  -0.951  -0.939  -0.935  -0.933  -0.903  -0.902  -0.894
 -0.892  -0.890  -0.888  -0.884  -0.877  -0.862  -0.861  -0.861
 -0.860  -0.854  -0.851  -0.844  -0.842  -0.841  -0.840  -0.829
 -0.814  -0.812  -0.811  -0.809  -0.802  -0.799  -0.798  -0.798
 -0.790  -0.787  -0.787  -0.787  -0.778  -0.765  -0.764  -0.762
 -0.745  -0.745  -0.727  -0.721  -0.716  -0.715  -0.713  -0.703
 -0.703  -0.702  -0.700  -0.698  -0.690  -0.689  -0.678  -0.673
 -0.670  -0.668  -0.665  -0.663  -0.659  -0.654  -0.652  -0.649
 -0.641  -0.636  -0.630  -0.619  -0.616  -0.609  -0.608  -0.608
 -0.598  -0.598  -0.593  -0.585  -0.583  -0.576  -0.575  -0.570
 -0.568  -0.561  -0.554  -0.550  -0.549  -0.544  -0.540  -0.539
 -0.537  -0.533  -0.531  -0.529  -0.527  -0.526  -0.523  -0.521
 -0.518  -0.517  -0.517  -0.515  -0.513  -0.509  -0.503  -0.502
 -0.500  -0.498  -0.496  -0.492  -0.492  -0.490  -0.489  -0.488
 -0.483  -0.481  -0.480  -0.480  -0.479  -0.479  -0.475  -0.475
 -0.474  -0.473  -0.472  -0.472  -0.472  -0.471  -0.470  -0.467
 -0.464  -0.461  -0.461  -0.461  -0.460  -0.459  -0.458  -0.457
 -0.456  -0.453  -0.452  -0.452  -0.447  -0.445  -0.442  -0.441
 -0.439  -0.438  -0.437  -0.434  -0.431  -0.431  -0.428  -0.428
 -0.425  -0.422  -0.420  -0.420  -0.419  -0.418  -0.417  -0.414
 -0.412  -0.410  -0.410  -0.409  -0.406  -0.405  -0.403  -0.401
 -0.401  -0.399  -0.399  -0.398  -0.398  -0.397  -0.392  -0.390
 -0.387  -0.384  -0.381  -0.380  -0.378  -0.377  -0.374  -0.371
 -0.369  -0.366  -0.365  -0.364  -0.359  -0.353  -0.346  -0.344
 -0.340  -0.337  -0.336  -0.329  -0.322  -0.318  -0.317  -0.315
 -0.314  -0.313  -0.306  -0.293  -0.291  -0.290  -0.285  -0.283
 -0.278  -0.273  -0.266  -0.264  -0.262  -0.258  -0.245  -0.238
 -0.236  -0.216  -0.139

 Beta MOs
 -- Occupied --
-14.775 -14.669 -10.548 -10.548 -10.509 -10.508 -10.507 -10.507
-10.489 -10.489 -10.487 -10.487 -10.487 -10.487 -10.485 -10.485
-10.483 -10.482 -10.470 -10.462 -10.460 -10.459 -10.459 -10.458
-10.454 -10.454 -10.454 -10.453 -10.453 -10.453 -10.453 -10.453
-10.452 -10.452 -10.450 -10.450 -10.449 -10.449 -10.445 -10.445
-10.443 -10.443 -10.443 -10.442 -10.440 -10.440 -10.439 -10.439
-10.439 -10.439 -10.439 -10.438 -10.438 -10.438 -10.438 -10.438
-10.437 -10.437 -10.435 -10.435 -10.433 -10.433 -10.433 -10.433
-10.433 -10.432 -10.432 -10.430 -10.430 -10.430 -10.429 -10.429
-10.428 -10.426 -10.426 -10.425 -10.425 -10.424 -10.424 -10.420
-10.419 -10.419 -10.419 -10.417 -10.414 -10.412 -10.409 -10.408
-10.401 -10.401 -10.398 -10.398  -6.891  -6.888  -1.153  -1.080
 -1.008  -1.006  -0.984  -0.984  -0.970  -0.961  -0.952  -0.951
 -0.951  -0.950  -0.939  -0.933  -0.932  -0.902  -0.900  -0.893
 -0.891  -0.889  -0.886  -0.882  -0.877  -0.861  -0.860  -0.859
 -0.858  -0.853  -0.851  -0.844  -0.840  -0.840  -0.837  -0.829
 -0.812  -0.811  -0.810  -0.809  -0.800  -0.797  -0.797  -0.796
 -0.790  -0.787  -0.787  -0.786  -0.778  -0.762  -0.762  -0.759
 -0.745  -0.745  -0.725  -0.719  -0.715  -0.712  -0.712  -0.703
 -0.702  -0.702  -0.700  -0.697  -0.688  -0.688  -0.677  -0.673
 -0.668  -0.667  -0.663  -0.663  -0.656  -0.653  -0.651  -0.648
 -0.637  -0.636  -0.629  -0.618  -0.613  -0.609  -0.608  -0.606
 -0.597  -0.596  -0.592  -0.580  -0.575  -0.574  -0.569  -0.568
 -0.568  -0.558  -0.554  -0.550  -0.546  -0.543  -0.538  -0.537
 -0.532  -0.530  -0.529  -0.528  -0.527  -0.525  -0.522  -0.521
 -0.517  -0.517  -0.516  -0.514  -0.512  -0.509  -0.501  -0.500
 -0.498  -0.496  -0.494  -0.492  -0.490  -0.489  -0.485  -0.482
 -0.482  -0.481  -0.480  -0.479  -0.479  -0.478  -0.474  -0.474
 -0.473  -0.473  -0.472  -0.472  -0.471  -0.470  -0.469  -0.466
 -0.462  -0.461  -0.460  -0.460  -0.459  -0.459  -0.458  -0.457
 -0.453  -0.450  -0.450  -0.449  -0.446  -0.445  -0.442  -0.441
 -0.439  -0.437  -0.434  -0.432  -0.431  -0.428  -0.427  -0.425
 -0.424  -0.420  -0.420  -0.419  -0.417  -0.416  -0.413  -0.412
 -0.410  -0.410  -0.405  -0.405  -0.404  -0.404  -0.401  -0.400
 -0.400  -0.399  -0.398  -0.397  -0.397  -0.396  -0.391  -0.390
 -0.386  -0.383  -0.381  -0.379  -0.377  -0.376  -0.373  -0.370
 -0.368  -0.366  -0.365  -0.364  -0.359  -0.353  -0.343  -0.338
 -0.332  -0.328  -0.323  -0.323  -0.319  -0.316  -0.313  -0.313
 -0.312  -0.311  -0.305  -0.293  -0.290  -0.284  -0.283  -0.278
 -0.267  -0.265  -0.263  -0.261  -0.250  -0.241  -0.236  -0.231
 -0.216

          Ground-State Mulliken Net Atomic Charges

     Atom                 Charge (a.u.)    Spin (a.u.)
  --------------------------------------------------------
      1 C                    -0.085934       0.011625
      2 C                    -0.097593       0.050363
      3 B                     0.501579       0.306027
      4 C                    -0.102154       0.049172
      5 C                    -0.089046       0.009407
      6 B                     0.465102       0.396001
      7 C                    -0.452625       0.013016
      8 C                     0.089847       0.030991
      9 C                     0.081758       0.083156
     10 C                    -0.447915      -0.042512
     11 C                    -0.447015       0.012697
     12 C                     0.091626       0.031836
     13 C                     0.079718       0.085398
     14 C                    -0.443250      -0.044151
     15 H                     0.212278      -0.001892
     16 C                    -0.186016      -0.030064
     17 C                    -0.147992      -0.033213
     18 C                     0.031974       0.005471
     19 C                    -0.302210      -0.002251
     20 C                     0.188754       0.002932
     21 C                    -0.312090      -0.002431
     22 C                     0.050973       0.005977
     23 C                    -0.534801       0.002582
     24 C                    -0.547380       0.003410
     25 H                     0.233012       0.000437
     26 N                    -0.716603      -0.000168
     27 H                     0.231923       0.000460
     28 C                    -0.656788       0.000065
     29 H                     0.229223       0.000326
     30 H                     0.255110      -0.001634
     31 C                    -0.656234      -0.000260
     32 H                     0.231163       0.000478
     33 H                     0.267193      -0.002962
     34 C                     0.043696       0.005809
     35 C                    -0.294179       0.012725
     36 C                     0.115336      -0.027467
     37 C                    -0.287587       0.014379
     38 C                     0.025029       0.005067
     39 C                    -0.545928       0.003683
     40 C                    -0.535604       0.003661
     41 H                     0.248081      -0.000080
     42 N                    -0.601867       0.444646
     43 H                     0.249594      -0.000334
     44 H                     0.230626       0.000767
     45 C                    -0.661053      -0.000036
     46 H                     0.276519      -0.002328
     47 H                     0.268034      -0.001780
     48 H                     0.229387       0.000483
     49 C                    -0.660451       0.000346
     50 C                     0.109207      -0.008394
     51 C                     0.115260      -0.029256
     52 C                    -0.413438       0.025579
     53 C                     0.134608      -0.003985
     54 C                    -0.286890       0.010494
     55 C                    -0.287595       0.030126
     56 C                     0.130715      -0.017612
     57 C                    -0.726035       0.001389
     58 H                     0.231129       0.001543
     59 C                    -0.408898       0.007688
     60 H                     0.214626      -0.001924
     61 C                     0.114490      -0.028395
     62 C                    -0.288556       0.029265
     63 C                     0.134672      -0.017137
     64 C                    -0.412441       0.024935
     65 C                    -0.727242       0.001355
     66 H                     0.232110      -0.001515
     67 H                     0.230644       0.001655
     68 H                     0.232911      -0.001550
     69 C                     0.108959      -0.008524
     70 C                    -0.410339       0.007805
     71 C                     0.131222      -0.003958
     72 C                    -0.287042       0.010535
     73 C                    -0.726081       0.000233
     74 H                     0.220916      -0.000415
     75 C                     0.061978       0.005808
     76 C                     0.062540       0.005889
     77 C                     0.058023       0.026831
     78 C                     0.057737       0.027751
     79 C                    -0.328261      -0.003085
     80 C                    -0.328640      -0.017592
     81 H                     0.229185      -0.001764
     82 H                     0.225724       0.000903
     83 H                     0.220419      -0.000387
     84 C                    -0.727759       0.000309
     85 H                     0.228986      -0.000674
     86 H                     0.228337       0.000090
     87 C                    -0.327513      -0.002952
     88 H                     0.228456       0.000080
     89 H                     0.229020      -0.000678
     90 C                    -0.327958      -0.018092
     91 H                     0.229192      -0.001817
     92 H                     0.225628       0.000928
     93 H                     0.242849      -0.000140
     94 H                     0.233417      -0.000030
     95 H                     0.237445      -0.000129
     96 H                     0.238612      -0.000477
     97 H                     0.244764      -0.000081
     98 H                     0.239255      -0.000643
     99 H                     0.241732      -0.000600
    100 H                     0.235906      -0.000579
    101 H                     0.245906      -0.000077
    102 H                     0.244727      -0.000133
    103 H                     0.234142      -0.000031
    104 H                     0.234422      -0.000139
    105 H                     0.226645       0.000012
    106 H                     0.208086      -0.000064
    107 H                     0.262057      -0.001085
    108 H                     0.217299       0.000007
    109 H                     0.244774      -0.000294
    110 H                     0.215718      -0.000043
    111 H                     0.254182      -0.000892
    112 H                     0.229873      -0.000032
    113 H                     0.208276      -0.000027
    114 H                     0.241757      -0.000364
    115 H                     0.214863      -0.000078
    116 H                     0.221357      -0.000013
    117 C                     0.298940      -0.099896
    118 C                     0.191984       0.232750
    119 C                    -0.234859      -0.038591
    120 C                     0.190944       0.231354
    121 C                    -0.611524       0.022671
    122 C                    -0.613479       0.021916
    123 C                     0.300711      -0.100659
    124 H                     0.250064      -0.000810
    125 H                     0.246954       0.000244
    126 H                     0.246406       0.000247
    127 C                    -0.307666      -0.152218
    128 C                    -0.204747       0.253440
    129 C                    -0.249189      -0.130928
    130 C                    -0.270343       0.182986
    131 H                     0.313912      -0.009902
    132 H                     0.274356      -0.013538
    133 H                     0.282067       0.005996
    134 H                     0.264110       0.007135
    135 C                    -0.307504      -0.151336
    136 C                    -0.270074       0.182779
    137 C                    -0.250477      -0.130908
    138 C                    -0.204100       0.252296
    139 H                     0.310677      -0.009879
    140 H                     0.281314       0.006018
    141 H                     0.264533       0.007103
    142 H                     0.274731      -0.013513
    143 C                     0.308170       0.000057
    144 C                     0.312883       0.000047
    145 C                     0.128150       0.000002
    146 C                    -0.200874       0.000000
    147 C                     0.128493       0.000004
    148 C                    -0.617257       0.000000
    149 C                    -0.327876       0.000014
    150 C                    -0.255378      -0.000006
    151 C                    -0.255291      -0.000004
    152 C                    -0.309747      -0.000001
    153 H                     0.228354       0.000001
    154 H                     0.241245       0.000004
    155 H                     0.229404       0.000001
    156 H                     0.268307      -0.000012
    157 C                    -0.329497       0.000017
    158 C                    -0.257716      -0.000003
    159 C                    -0.253814      -0.000005
    160 C                    -0.309864      -0.000001
    161 H                     0.228691       0.000001
    162 H                     0.264287      -0.000012
    163 H                     0.239888       0.000000
    164 H                     0.230020       0.000001
    165 H                     0.248739      -0.000855
    166 H                     0.246904       0.000293
    167 H                     0.246854       0.000318
    168 H                     0.235131       0.000000
    169 H                     0.224444      -0.000000
    170 H                     0.224786       0.000000
    171 C                    -0.612914       0.000000
    172 H                     0.234425       0.000000
    173 H                     0.224110       0.000000
    174 H                     0.223913       0.000000
  --------------------------------------------------------
  Sum of atomic charges =    -0.000000

                    Cartesian Multipole Moments
 -----------------------------------------------------------------
    Charge (ESU x 10^10)
                -0.0000
    Dipole Moment (Debye)
         X      10.0275      Y      32.3747      Z     -10.8642
       Tot      35.5907
    Quadrupole Moments (Debye-Ang)
        XX    -597.9177     XY     -75.2686     YY    -106.9730
        XZ      45.7042     YZ     -54.9817     ZZ    -574.5302

 Total job time:  253638.70s(wall), 786929.55s(cpu)
        *  Thank you very much for using Q-Chem.  Have a nice day.  *
