 Q-Chem 5.0, Q-Chem, Inc., Pleasanton, CA (2017)
 Q-Chem 5.0.1 for Intel X86 EM64T Linux

User input:
--------------------------------------------------------------
$rem
threads 8
jobtype opt
method PBEh-3c
basis def2-mSVP
mem_static      1024
mem_total       8000
sym_ignore      true
unrestricted true
scf_algorithm   diis
scf_max_cycles  250
solvent_method  pcm
geom_opt_tol_energy 25
geom_opt_tol_gradient 75
$end

$pcm
theory  iefpcm
HPoints 194
HeavyPoints 194
$end

$solvent
dielectric      1.0001
$end

$molecule
read utLEincoords.mol
$end

--------------------------------------------------------------

   67   -3629.1565044878      7.88E-09 Convergence criterion met
 Total energy in the final basis set = -3629.15650449
   20   -3629.1535564671      9.63E-09 Convergence criterion met
 Total energy in the final basis set = -3629.15355647
   21   -3629.1567635008      8.25E-09 Convergence criterion met
 Total energy in the final basis set = -3629.15676350
   21   -3629.1571784963      7.59E-09 Convergence criterion met
 Total energy in the final basis set = -3629.15717850
   23   -3629.1579996607      7.19E-09 Convergence criterion met
 Total energy in the final basis set = -3629.15799966
   20   -3629.1586873071      9.99E-09 Convergence criterion met
 Total energy in the final basis set = -3629.15868731
   23   -3629.1590427385      6.74E-09 Convergence criterion met
 Total energy in the final basis set = -3629.15904274
   20   -3629.1592357847      8.87E-09 Convergence criterion met
    8   -3629.1590785906      9.59E-09 Convergence criterion met
 Total energy in the final basis set = -3629.15907859
   13   -3629.1590780799      8.52E-09 Convergence criterion met
 Total energy in the final basis set = -3629.15907808
   13   -3629.1590784360      9.09E-09 Convergence criterion met
 Total energy in the final basis set = -3629.15907844
   13   -3629.1590792614      9.55E-09 Convergence criterion met
 Total energy in the final basis set = -3629.15907926
    8   -3629.1590837479      7.89E-09 Convergence criterion met
 Total energy in the final basis set = -3629.15908375
    9   -3629.1590858815      9.69E-09 Convergence criterion met
 Total energy in the final basis set = -3629.15908588

             Standard Nuclear Orientation (Angstroms)
    I     Atom           X                Y                Z
 ----------------------------------------------------------------
    1      C      -6.0111463555     3.9508853488     2.2563793146
    2      C      -6.5539932176     2.6290638331     2.4893940122
    3      B      -5.7000302344     1.3761534714     2.3003399507
    4      C      -4.2242627305     1.5710763260     1.9560713234
    5      C      -3.6698454223     2.8916225778     1.7312115133
    6      B      -4.5545951475     4.1354473871     1.8199850301
    7      C      -2.3240565218     2.9812908604     1.3644018831
    8      C      -1.5087841574     1.8800656846     1.1634294138
    9      C      -2.0856371635     0.5606063959     1.3287783694
   10      C      -3.4006228498     0.4682922148     1.7505857004
   11      C      -6.8803719304     5.0408749078     2.3582157312
   12      C      -8.2201985005     4.9275692778     2.6849173421
   13      C      -8.7586620472     3.6032512996     2.9190105143
   14      C      -7.9050633987     2.5191251651     2.8057116654
   15      H      -6.4678099737     6.0145764893     2.1355400911
   16      C      -6.3664756413    -0.0565220204     2.3177013738
   17      C      -4.0736513074     5.5601838928     1.3462212419
   18      C      -6.7081425140    -0.6581359494     1.0951285530
   19      C      -7.3277894626    -1.9009462666     1.0808798946
   20      C      -7.6428483011    -2.5470375642     2.2616852415
   21      C      -7.3174355099    -1.9633322505     3.4732311092
   22      C      -6.6739341614    -0.7304416233     3.5101494456
   23      C      -6.2670010947    -0.1673994655     4.8453366879
   24      C      -6.4997675670     0.0354480945    -0.2272600106
   25      H      -7.5933134657    -2.3678613023     0.1383430807
   26      N      -8.3223535156    -3.7954441661     2.2190902689
   27      H      -7.5667214388    -2.4801444974     4.3934334583
   28      C      -4.8512791519    -0.5936486290     5.2265563542
   29      H      -6.9670275590    -0.5042962525     5.6142260982
   30      H      -6.3269398995     0.9235298857     4.8345868345
   31      C      -7.7439071556     0.8063188727    -0.6646254267
   32      H      -6.2514689338    -0.7081282324    -0.9894847218
   33      H      -5.6483087366     0.7161980854    -0.1823831661
   34      C      -3.8068926119     6.5925504185     2.2589589719
   35      C      -3.5391564033     7.8786643843     1.8012514265
   36      C      -3.5174916954     8.1447766760     0.4433465532
   37      C      -3.7371016714     7.1242790761    -0.4644201186
   38      C      -4.0242803788     5.8361516262    -0.0307171163
   39      C      -4.3515225736     4.7921890016    -1.0709855631
   40      C      -3.7719344915     6.3178980849     3.7393931533
   41      H      -3.3531245770     8.6838181685     2.5028696066
   42      N      -3.2971047406     9.4649016932    -0.0278701457
   43      H      -3.7107055994     7.3489416535    -1.5252339233
   44      H      -3.8312043923     5.0410193561    -1.9994814920
   45      C      -5.8494257582     4.6892988825    -1.3537060983
   46      H      -3.9739850049     3.8134621337    -0.7700876513
   47      H      -4.5937975446     5.6560043847     4.0234347517
   48      H      -3.9291816893     7.2497065428     4.2883245969
   49      C      -2.4501069557     5.6906878202     4.1762920340
   50      C      -0.1153689708     1.9998614875     0.7785104548
   51      C     -10.1665228701     3.4368481459     3.2173065258
   52      C     -10.7101025945     2.1659959802     3.4769481937
   53      C       1.8176651901     3.4137393549     0.3011890971
   54      C       2.5592550228     2.2602582992     0.0428975505
   55      C     -12.8847522321     3.0844034168     3.7209546149
   56      C     -12.0499439098     1.9655952325     3.7304965083
   57      C     -12.6021427581     0.6002861641     4.0121115026
   58      H      -3.8466649882    -0.5036868827     1.9080015168
   59      C       0.4975973229     3.2575885738     0.6663400478
   60      H      -1.9306383334     3.9759151055     1.2060503973
   61      C      -1.3036863784    -0.6166432893     1.0114219518
   62      C       0.1573443200    -2.8922924513     0.3377854843
   63      C      -1.1692659815    -3.0425826115     0.7436784999
   64      C      -1.8705382802    -1.9014222902     1.0693529965
   65      C      -1.8055679536    -4.3982474231     0.8241726182
   66      H      -2.9050782503    -2.0209315137     1.3597493847
   67      H      -8.2942068927     1.5192820611     2.9369693920
   68      H     -10.0666000256     1.2973058048     3.4860040147
   69      C      -9.1011613393     6.0784330755     2.7640498324
   70      C      -8.6086821108     7.3826309736     2.5936747159
   71      C      -9.4195061382     8.4976029619     2.6396589726
   72      C     -10.7831448694     8.2981243864     2.8580281603
   73      C      -8.8623558882     9.8794206417     2.4784249426
   74      H      -7.5517336467     7.5389179066     2.4270130091
   75      C     -10.4753220400     5.8969051264     3.0069940834
   76      C       0.6441064402     0.8461632624     0.5092632288
   77      C       0.0332993047    -0.4821253950     0.5979496801
   78      C     -11.0185367420     4.5558303145     3.2325200630
   79      C       1.9823786230     1.0128931076     0.1477786896
   80      C       0.7360725542    -1.6430617182     0.2667731754
   81      H       0.7396042540    -3.7640212951     0.0641058129
   82      H       1.7614149752    -1.5853600715    -0.0679545422
   83      H      -0.0754684711     4.1504117485     0.8732825258
   84      C       2.4431458233     4.7715100822     0.1920872846
   85      H       3.6009633133     2.3413148086    -0.2432675973
   86      H       2.6023421271     0.1526402981    -0.0584832921
   87      C     -11.2909727515     7.0301108417     3.0392570353
   88      H     -12.3528404185     6.9340136675     3.2130103320
   89      H     -11.4535586073     9.1485162236     2.8926061684
   90      C     -12.3769019219     4.3424101161     3.4809098034
   91      H     -13.9453957812     2.9659444143     3.9083417144
   92      H     -13.0690378960     5.1715839985     3.4912332843
   93      H       3.2229312039     4.9089986398     0.9429174732
   94      H       1.7083465650     5.5634830556     0.3316847680
   95      H       2.9045193806     4.9182840481    -0.7852688513
   96      H      -1.6165406873    -4.9834870494    -0.0763411677
   97      H      -2.8859384539    -4.3291328409     0.9488090679
   98      H      -1.4116201603    -4.9679845084     1.6681026756
   99      H     -13.0164057905     0.5419180880     5.0200139405
  100      H     -13.4078014013     0.3480706762     3.3205110373
  101      H     -11.8404353201    -0.1737558245     3.9267975428
  102      H      -8.9505145023    10.4479469208     3.4059472365
  103      H      -7.8096022620     9.8647994324     2.2003088237
  104      H      -9.3968966642    10.4374185895     1.7084248184
  105      H      -6.0462863255     3.9555795253    -2.1365427017
  106      H      -6.2557865745     5.6467106227    -1.6819824719
  107      H      -6.4036808577     4.3813275967    -0.4673215186
  108      H      -7.5875125386     1.2879827069    -1.6306263999
  109      H      -8.0003054094     1.5833893879     0.0559639707
  110      H      -8.6055289427     0.1435336468    -0.7564999196
  111      H      -2.2943230665     4.7232608504     3.6980695849
  112      H      -2.4300278198     5.5303732290     5.2547166985
  113      H      -1.6069384300     6.3316933076     3.9160184134
  114      H      -4.1243369471    -0.2290410020     4.5003459969
  115      H      -4.7670411094    -1.6805607513     5.2648092285
  116      H      -4.5698120041    -0.2000102458     6.2036371736
  117      C      -4.3971054790    10.2362147972    -0.3803511813
  118      C      -4.2280932704    11.5336217570    -0.8731493223
  119      C      -2.8594323433    12.1709018212    -1.0399925585
  120      C      -1.7455074012    11.1770788945    -0.7510928832
  121      C      -2.7408889421    13.3488337413    -0.0594214359
  122      C      -2.7195001002    12.6777706382    -2.4854576827
  123      C      -1.9969111868     9.8899443087    -0.2666193123
  124      H      -2.8305308695    11.8574974336    -3.1943085966
  125      H      -1.7481313290    13.1409639031    -2.6567602096
  126      H      -3.4741287774    13.4282953621    -2.7206331442
  127      C      -5.3672143574    12.2609589159    -1.2053822145
  128      C      -6.6452268230    11.7461775619    -1.0839658443
  129      C      -6.7980575744    10.4555891058    -0.6053359753
  130      C      -5.6909963277     9.7112925453    -0.2500008459
  131      H      -5.8363385765     8.7045107333     0.1155274709
  132      H      -7.5037854011    12.3420845630    -1.3622442725
  133      H      -7.7822924514    10.0149742328    -0.5091904577
  134      H      -5.2539664914    13.2716919851    -1.5773954844
  135      C      -0.4216687777    11.5508021387    -0.9556185421
  136      C      -0.9277286277     9.0184921271    -0.0269263569
  137      C       0.3738455305     9.4198627668    -0.2488333823
  138      C       0.6395961690    10.6974785238    -0.7132270371
  139      H      -1.1180319357     8.0170631904     0.3320646295
  140      H       1.1818113676     8.7255055963    -0.0564328489
  141      H      -0.2096200604    12.5492268946    -1.3174748686
  142      H       1.6551898196    11.0257898437    -0.8865960289
  143      C      -9.7030127797    -3.7985634127     2.0585322540
  144      C      -7.5857017642    -4.9733503328     2.2275818487
  145      C      -8.2222455066    -6.2157028196     2.1293595240
  146      C      -9.7315195712    -6.3595185174     2.0155756724
  147      C     -10.4096776828    -5.0017613661     1.9612632590
  148      C     -10.0696411383    -7.1409482175     0.7337411884
  149      C     -10.4058232790    -2.5876577370     1.9944060414
  150      C     -11.7770887521    -2.5682686913     1.8322810241
  151      C     -12.4875398518    -3.7536604500     1.7423736243
  152      C     -11.7918640019    -4.9459295453     1.8099690957
  153      H     -12.3486906196    -5.8723959753     1.7394369032
  154      H     -12.2882710312    -1.6160019115     1.7729221810
  155      H     -13.5619137940    -3.7523002104     1.6181707833
  156      H      -9.8742174308    -1.6497527327     2.0623556946
  157      C      -6.1902704305    -4.9261137526     2.3366513953
  158      C      -5.4398043020    -6.0852400566     2.3540356212
  159      C      -6.0589789344    -7.3207808251     2.2604996383
  160      C      -7.4362147680    -7.3627783621     2.1498893368
  161      H      -7.9206389296    -8.3290239167     2.0798145724
  162      H      -5.6881579519    -3.9724423333     2.4152182068
  163      H      -4.3632222082    -6.0172283682     2.4457912112
  164      H      -5.4826300901    -8.2357226167     2.2754258056
  165      H      -2.8402293235    13.0052739149     0.9702199696
  166      H      -3.5188330428    14.0915921086    -0.2415154052
  167      H      -1.7759353854    13.8489228947    -0.1551917687
  168      H      -9.7200279456    -6.6083969320    -0.1502399388
  169      H     -11.1446334745    -7.2914946789     0.6307657040
  170      H      -9.6081940321    -8.1287984759     0.7352839977
  171      C     -10.2555501184    -7.1326690607     3.2386904365
  172      H     -10.0297434171    -6.5995730502     4.1619227802
  173      H      -9.8045352826    -8.1238479457     3.3048330546
  174      H     -11.3366709005    -7.2695625013     3.1866032628
 ----------------------------------------------------------------

    8   -3629.1590860245      9.50E-09 Convergence criterion met
 Total energy in the final basis set = -3629.15908602
 Final energy is   -3629.15908602446
 **  OPTIMIZATION CONVERGED  **

                    Orbital Energies (a.u.)
 --------------------------------------------------------------

 Alpha MOs
 -- Occupied --
-14.671 -14.669 -10.488 -10.488 -10.487 -10.486 -10.482 -10.481
-10.481 -10.481 -10.478 -10.477 -10.475 -10.474 -10.474 -10.473
-10.473 -10.473 -10.473 -10.472 -10.468 -10.468 -10.467 -10.466
-10.464 -10.464 -10.461 -10.461 -10.461 -10.460 -10.460 -10.460
-10.460 -10.459 -10.459 -10.458 -10.458 -10.457 -10.451 -10.450
-10.450 -10.449 -10.449 -10.449 -10.449 -10.449 -10.446 -10.445
-10.445 -10.445 -10.443 -10.443 -10.442 -10.441 -10.441 -10.440
-10.439 -10.439 -10.439 -10.439 -10.439 -10.439 -10.439 -10.438
-10.438 -10.438 -10.438 -10.438 -10.437 -10.436 -10.435 -10.435
-10.434 -10.433 -10.432 -10.432 -10.432 -10.432 -10.431 -10.431
-10.430 -10.430 -10.424 -10.423 -10.422 -10.422 -10.422 -10.421
-10.419 -10.419 -10.417 -10.416  -6.917  -6.917  -1.083  -1.083
 -1.009  -1.008  -0.973  -0.971  -0.967  -0.966  -0.963  -0.961
 -0.954  -0.953  -0.946  -0.945  -0.913  -0.910  -0.904  -0.904
 -0.888  -0.888  -0.887  -0.887  -0.886  -0.877  -0.864  -0.863
 -0.860  -0.859  -0.846  -0.845  -0.831  -0.830  -0.829  -0.828
 -0.825  -0.818  -0.817  -0.814  -0.811  -0.810  -0.805  -0.802
 -0.801  -0.800  -0.785  -0.784  -0.765  -0.765  -0.765  -0.762
 -0.739  -0.730  -0.726  -0.719  -0.718  -0.715  -0.711  -0.709
 -0.704  -0.703  -0.703  -0.701  -0.695  -0.688  -0.684  -0.683
 -0.675  -0.673  -0.672  -0.665  -0.665  -0.662  -0.640  -0.635
 -0.630  -0.630  -0.627  -0.623  -0.619  -0.615  -0.612  -0.611
 -0.611  -0.610  -0.584  -0.582  -0.581  -0.576  -0.572  -0.567
 -0.561  -0.555  -0.554  -0.549  -0.545  -0.542  -0.539  -0.538
 -0.535  -0.532  -0.531  -0.528  -0.527  -0.521  -0.521  -0.520
 -0.519  -0.517  -0.516  -0.513  -0.504  -0.504  -0.500  -0.500
 -0.499  -0.497  -0.496  -0.495  -0.494  -0.493  -0.493  -0.492
 -0.490  -0.489  -0.486  -0.486  -0.485  -0.485  -0.484  -0.483
 -0.480  -0.479  -0.478  -0.477  -0.477  -0.476  -0.475  -0.474
 -0.473  -0.470  -0.468  -0.468  -0.468  -0.458  -0.456  -0.452
 -0.450  -0.449  -0.447  -0.447  -0.445  -0.442  -0.442  -0.441
 -0.440  -0.435  -0.434  -0.434  -0.433  -0.430  -0.429  -0.427
 -0.426  -0.425  -0.424  -0.424  -0.422  -0.422  -0.420  -0.419
 -0.419  -0.418  -0.418  -0.418  -0.410  -0.410  -0.406  -0.405
 -0.404  -0.403  -0.402  -0.399  -0.394  -0.393  -0.392  -0.391
 -0.389  -0.388  -0.386  -0.385  -0.384  -0.384  -0.373  -0.372
 -0.371  -0.368  -0.368  -0.367  -0.364  -0.362  -0.361  -0.358
 -0.352  -0.347  -0.343  -0.340  -0.338  -0.333  -0.333  -0.330
 -0.297  -0.293  -0.293  -0.287  -0.284  -0.283  -0.283  -0.278
 -0.278  -0.276  -0.274  -0.273  -0.273  -0.267  -0.265  -0.258
 -0.217  -0.216  -0.167

 Beta MOs
 -- Occupied --
-14.671 -14.669 -10.488 -10.488 -10.487 -10.486 -10.479 -10.478
-10.478 -10.478 -10.477 -10.477 -10.474 -10.474 -10.474 -10.473
-10.473 -10.473 -10.473 -10.472 -10.469 -10.469 -10.468 -10.467
-10.464 -10.464 -10.462 -10.462 -10.461 -10.460 -10.459 -10.459
-10.458 -10.457 -10.457 -10.457 -10.457 -10.456 -10.453 -10.451
-10.451 -10.451 -10.449 -10.449 -10.449 -10.448 -10.446 -10.445
-10.445 -10.445 -10.443 -10.443 -10.441 -10.440 -10.439 -10.439
-10.439 -10.439 -10.439 -10.439 -10.439 -10.438 -10.438 -10.438
-10.438 -10.438 -10.437 -10.437 -10.437 -10.436 -10.435 -10.435
-10.434 -10.433 -10.432 -10.432 -10.432 -10.432 -10.431 -10.431
-10.430 -10.430 -10.425 -10.423 -10.422 -10.422 -10.422 -10.421
-10.419 -10.419 -10.417 -10.416  -6.915  -6.914  -1.083  -1.083
 -1.006  -1.005  -0.971  -0.970  -0.967  -0.966  -0.959  -0.956
 -0.954  -0.953  -0.945  -0.944  -0.911  -0.908  -0.904  -0.904
 -0.888  -0.887  -0.886  -0.884  -0.882  -0.873  -0.864  -0.862
 -0.860  -0.858  -0.846  -0.845  -0.831  -0.830  -0.827  -0.824
 -0.821  -0.817  -0.816  -0.811  -0.810  -0.805  -0.804  -0.801
 -0.801  -0.800  -0.785  -0.783  -0.765  -0.765  -0.764  -0.761
 -0.736  -0.725  -0.724  -0.718  -0.715  -0.714  -0.711  -0.709
 -0.703  -0.703  -0.702  -0.701  -0.694  -0.687  -0.684  -0.682
 -0.674  -0.672  -0.670  -0.665  -0.665  -0.660  -0.638  -0.635
 -0.630  -0.630  -0.625  -0.620  -0.618  -0.614  -0.612  -0.611
 -0.611  -0.610  -0.582  -0.580  -0.580  -0.575  -0.571  -0.564
 -0.560  -0.554  -0.553  -0.548  -0.544  -0.542  -0.538  -0.536
 -0.534  -0.532  -0.531  -0.528  -0.527  -0.520  -0.520  -0.520
 -0.519  -0.517  -0.516  -0.513  -0.502  -0.501  -0.500  -0.499
 -0.498  -0.495  -0.494  -0.493  -0.493  -0.493  -0.492  -0.491
 -0.489  -0.488  -0.486  -0.485  -0.485  -0.484  -0.483  -0.483
 -0.479  -0.478  -0.478  -0.477  -0.476  -0.474  -0.474  -0.471
 -0.470  -0.468  -0.467  -0.466  -0.464  -0.458  -0.455  -0.451
 -0.449  -0.448  -0.447  -0.447  -0.444  -0.441  -0.441  -0.440
 -0.439  -0.435  -0.434  -0.433  -0.430  -0.429  -0.426  -0.425
 -0.424  -0.424  -0.423  -0.422  -0.419  -0.419  -0.418  -0.417
 -0.416  -0.416  -0.415  -0.413  -0.410  -0.410  -0.405  -0.404
 -0.403  -0.403  -0.402  -0.398  -0.394  -0.393  -0.391  -0.389
 -0.388  -0.387  -0.385  -0.384  -0.384  -0.382  -0.372  -0.372
 -0.369  -0.368  -0.367  -0.364  -0.361  -0.361  -0.360  -0.351
 -0.343  -0.338  -0.334  -0.332  -0.331  -0.329  -0.326  -0.314
 -0.293  -0.293  -0.286  -0.283  -0.283  -0.281  -0.278  -0.278
 -0.277  -0.273  -0.273  -0.272  -0.262  -0.258  -0.246  -0.217
 -0.216

          Ground-State Mulliken Net Atomic Charges

     Atom                 Charge (a.u.)    Spin (a.u.)
  --------------------------------------------------------
      1 C                    -0.079720       0.195308
      2 C                    -0.079032       0.179685
      3 B                     0.540425       0.260071
      4 C                    -0.082896       0.187979
      5 C                    -0.079436       0.200058
      6 B                     0.535093       0.268560
      7 C                    -0.436289      -0.106936
      8 C                     0.113962       0.207874
      9 C                     0.108328       0.230313
     10 C                    -0.431669      -0.121496
     11 C                    -0.427009      -0.102409
     12 C                     0.118870       0.201209
     13 C                     0.108018       0.223310
     14 C                    -0.428572      -0.116511
     15 H                     0.237447       0.003579
     16 C                    -0.206253      -0.026790
     17 C                    -0.191065      -0.029067
     18 C                     0.047060       0.004973
     19 C                    -0.288324      -0.002061
     20 C                     0.188886       0.002611
     21 C                    -0.298997      -0.002094
     22 C                     0.061878       0.005296
     23 C                    -0.535072       0.002702
     24 C                    -0.545351       0.003690
     25 H                     0.223326       0.000403
     26 N                    -0.721466      -0.000101
     27 H                     0.220907       0.000425
     28 C                    -0.645127       0.000100
     29 H                     0.226387       0.000267
     30 H                     0.252075      -0.001639
     31 C                    -0.644483      -0.000186
     32 H                     0.229552       0.000439
     33 H                     0.260661      -0.002774
     34 C                     0.059034       0.006834
     35 C                    -0.301572      -0.002755
     36 C                     0.183185       0.003627
     37 C                    -0.291452      -0.002607
     38 C                     0.049197       0.006057
     39 C                    -0.543976       0.002479
     40 C                    -0.533543       0.002475
     41 H                     0.219714       0.000481
     42 N                    -0.717023      -0.000146
     43 H                     0.224394       0.000437
     44 H                     0.229887       0.000700
     45 C                    -0.648289       0.001343
     46 H                     0.255880      -0.001926
     47 H                     0.252046      -0.001491
     48 H                     0.226058       0.000322
     49 C                    -0.647076       0.000681
     50 C                     0.128180      -0.069623
     51 C                     0.130747      -0.075143
     52 C                    -0.388058       0.097085
     53 C                     0.143966      -0.051090
     54 C                    -0.259285       0.090329
     55 C                    -0.258349       0.101984
     56 C                     0.144874      -0.058571
     57 C                    -0.718967       0.004250
     58 H                     0.238218       0.004613
     59 C                    -0.383319       0.089855
     60 H                     0.237070       0.003747
     61 C                     0.130975      -0.077302
     62 C                    -0.259983       0.102627
     63 C                     0.147427      -0.059178
     64 C                    -0.385624       0.099923
     65 C                    -0.716995       0.004297
     66 H                     0.219946      -0.006155
     67 H                     0.237684       0.004447
     68 H                     0.221056      -0.005981
     69 C                     0.128269      -0.066986
     70 C                    -0.390757       0.087756
     71 C                     0.141744      -0.048932
     72 C                    -0.258397       0.086582
     73 C                    -0.718886       0.003460
     74 H                     0.222459      -0.005367
     75 C                     0.095942       0.051042
     76 C                     0.097449       0.054690
     77 C                     0.094449       0.066386
     78 C                     0.094507       0.066981
     79 C                    -0.307563      -0.032956
     80 C                    -0.307671      -0.041396
     81 H                     0.220440      -0.005955
     82 H                     0.209219       0.002051
     83 H                     0.217099      -0.005493
     84 C                    -0.709272       0.003633
     85 H                     0.220064      -0.005259
     86 H                     0.209645       0.001585
     87 C                    -0.307237      -0.030166
     88 H                     0.209099       0.001435
     89 H                     0.219970      -0.005046
     90 C                    -0.307296      -0.041916
     91 H                     0.220493      -0.005910
     92 H                     0.209409       0.002079
     93 H                     0.238761      -0.001615
     94 H                     0.233955      -0.000222
     95 H                     0.237392      -0.001307
     96 H                     0.236848      -0.001311
     97 H                     0.242631      -0.000311
     98 H                     0.237463      -0.002085
     99 H                     0.240993      -0.001863
    100 H                     0.232143      -0.001630
    101 H                     0.247284      -0.000239
    102 H                     0.240150      -0.001587
    103 H                     0.252788      -0.000216
    104 H                     0.231150      -0.001207
    105 H                     0.217068      -0.000057
    106 H                     0.217821       0.000118
    107 H                     0.247899      -0.001424
    108 H                     0.218149      -0.000014
    109 H                     0.241544      -0.000343
    110 H                     0.217279       0.000146
    111 H                     0.240688      -0.000635
    112 H                     0.220396      -0.000038
    113 H                     0.215103       0.000078
    114 H                     0.238740      -0.000307
    115 H                     0.215849       0.000023
    116 H                     0.220165      -0.000016
    117 C                     0.311638       0.000061
    118 C                     0.141910       0.000025
    119 C                    -0.209504      -0.000004
    120 C                     0.143855       0.000028
    121 C                    -0.592010       0.000003
    122 C                    -0.604720       0.000002
    123 C                     0.313482       0.000045
    124 H                     0.236363      -0.000000
    125 H                     0.216435      -0.000000
    126 H                     0.214870       0.000000
    127 C                    -0.292338      -0.000015
    128 C                    -0.228492       0.000024
    129 C                    -0.236402      -0.000014
    130 C                    -0.311663       0.000037
    131 H                     0.252884      -0.000012
    132 H                     0.208780      -0.000001
    133 H                     0.219353       0.000008
    134 H                     0.205325       0.000002
    135 C                    -0.293312      -0.000022
    136 C                    -0.302420       0.000051
    137 C                    -0.231219      -0.000024
    138 C                    -0.227209       0.000034
    139 H                     0.247949      -0.000020
    140 H                     0.208463       0.000001
    141 H                     0.205207       0.000002
    142 H                     0.209103      -0.000002
    143 C                     0.314535       0.000043
    144 C                     0.317732       0.000032
    145 C                     0.141272       0.000022
    146 C                    -0.211531      -0.000003
    147 C                     0.141328       0.000020
    148 C                    -0.599566       0.000002
    149 C                    -0.310230       0.000027
    150 C                    -0.234982      -0.000015
    151 C                    -0.228069       0.000018
    152 C                    -0.289875      -0.000014
    153 H                     0.205550       0.000002
    154 H                     0.216222       0.000003
    155 H                     0.208906      -0.000001
    156 H                     0.249827      -0.000009
    157 C                    -0.308527       0.000032
    158 C                    -0.234480      -0.000020
    159 C                    -0.227099       0.000027
    160 C                    -0.290254      -0.000017
    161 H                     0.205685       0.000002
    162 H                     0.246315      -0.000010
    163 H                     0.211759      -0.000000
    164 H                     0.209434      -0.000001
    165 H                     0.231613      -0.000000
    166 H                     0.214865       0.000000
    167 H                     0.215675       0.000000
    168 H                     0.234752      -0.000000
    169 H                     0.215105       0.000000
    170 H                     0.215420      -0.000000
    171 C                    -0.594716       0.000002
    172 H                     0.233253      -0.000000
    173 H                     0.215242       0.000000
    174 H                     0.214931       0.000000
  --------------------------------------------------------
  Sum of atomic charges =    -0.000000

                    Cartesian Multipole Moments
 -----------------------------------------------------------------
    Charge (ESU x 10^10)
                -0.0000
    Dipole Moment (Debye)
         X       0.3546      Y      -0.2598      Z       0.2122
       Tot       0.4881
    Quadrupole Moments (Debye-Ang)
        XX    -475.0011     XY     -22.9934     YY    -519.6518
        XZ     -18.9126     YZ       6.5845     ZZ    -558.2723

 Total job time:  219566.54s(wall), 656731.82s(cpu)
        *  Thank you very much for using Q-Chem.  Have a nice day.  *
