 Q-Chem 5.1, Q-Chem, Inc., Pleasanton, CA (2018)
 Q-Chem 5.1.1 for Intel X86 EM64T Linux

User input:
--------------------------------------------------------------
$rem
threads 8
jobtype	sp
method PBEh-3c
basis def2-mSVP
mem_static	1024
mem_total	14000
sym_ignore	true
cis_n_roots             6
cis_singlets            false
cis_triplets		true
rpa                     false
state_analysis 		true
make_cube_files		true
cis_moments		true
sym_ignore              true
$end

$plots
att. det. elec. hole and diff. dens for gsopt.out
113 -6.01 9.35
139 -14.71 3.23
82 -3.91 8.37
0 0 0 2
1 2
$end

$molecule
0 1
C         0.1259330406   -4.5856407007    1.0666232976
C         0.0042700506   -4.4430353632    2.5853123735
C         1.5854549421   -4.1736596265    0.8712394581
C         2.2917826359   -4.1380065184   -0.3139290275
H         1.8175544917   -4.3980853921   -1.2526397491
C         3.6301865853   -3.7679806962   -0.2776947208
H         4.2013571834   -3.7302947589   -1.1958721989
C         4.2415515143   -3.4488987935    0.9300099326
H         5.2862599469   -3.1684483766    0.9418017932
C         3.5289743835   -3.4893774555    2.1194113027
H         4.0155700776   -3.2477721231    3.0554001202
C         2.1909662447   -3.8521846880    2.0835528102
C        -1.1046767133   -4.6826633207    3.3699493496
H        -2.0350022192   -5.0238586746    2.9329118344
C        -1.0085439523   -4.4777285629    4.7398934136
H        -1.8670717723   -4.6613228642    5.3719033196
C         0.1831588990   -4.0391147503    5.3053972217
H         0.2419061104   -3.8843245150    6.3743221968
C         1.2973213359   -3.7996709298    4.5147489287
H         2.2225509948   -3.4611180066    4.9629447745
C         1.2017454528   -4.0029771858    3.1471645391
C        -2.1162244323   -3.7716021406    0.0064241153
C        -2.9067215009   -2.7016639022   -0.4007682177
H        -3.9107378075   -2.8960224640   -0.7550073323
C        -2.4516072589   -1.3953468799   -0.3790529077
C        -3.3057151604   -0.3402336095   -0.8139675622
N        -4.0175422979    0.4903722477   -1.1716617515
C        -0.8121876488   -3.5356785700    0.4566299005
C        -0.3600504550   -2.2162182067    0.4709948028
H         0.6400473034   -1.9937152962    0.8130460102
C        -1.1493619097   -1.1535076527    0.0626404758
C        -0.6212140124    0.1704374324    0.0956618228
N        -0.1839688482    1.2344759592    0.1248001860
H         5.6585794489   -6.2629635507    0.2282109434
H         7.3522424556   -7.8003251968    1.2081941998
C         5.3551095127   -7.1768010360    0.7221651881
C         6.2972003589   -8.0316990766    1.2660241943
C         4.0058130303   -7.4679938766    0.8193169910
H         3.2928481777   -6.7730182842    0.3995660474
C         5.8743709085   -9.2063501358    1.8692017256
H         6.6192382993   -9.8839079118    2.2629713620
C         3.5837623954   -8.6315055146    1.4608270893
C         4.5302602539   -9.5410500360    1.9521786941
N         2.2262839709   -8.9328679807    1.6358187693
C         2.7551345767  -10.6683765003    3.2150967108
C         1.8407268205   -9.7355689591    2.7129162094
H         3.0893214195  -12.1296353954    4.7427683933
C         2.3932653626  -11.4135446904    4.3281364628
C         0.5756919222   -9.6155009909    3.2864154734
C         1.1425168011  -11.2869575469    4.9135771785
C         0.2302783761  -10.3959996698    4.3759339661
H        -0.1392344735   -8.9068864660    2.8918918306
H         0.8825620340  -11.8896409172    5.7733079585
H        -0.7551495669  -10.2921264179    4.8110190746
C         4.0327011018  -10.8926743604    2.4320444594
C         5.0806186676  -11.6489345193    3.2412403098
C         3.6829814061  -11.7441296591    1.1924053189
C         1.2373184061   -8.1779060967    0.9600833316
C         0.5232951342   -8.7469492730   -0.0834753805
C        -0.4402690186   -7.9902377577   -0.7134082454
C        -0.6892224098   -6.6559555835   -0.3769866267
C         0.0594605082   -6.0672731261    0.6440311619
C         0.9750007401   -6.8743854386    1.3244019515
H         1.5405370752   -6.4678495454    2.1524140667
H         0.7117665104   -9.7706885717   -0.3789908833
H        -1.0284081051   -8.4407387958   -1.5038823072
C        -1.8166428242   -5.9767694184   -1.0999995025
C        -2.6864834312   -5.1468920033   -0.1610290282
H        -2.4304083557   -6.7459481258   -1.5718684105
H        -1.4528265221   -5.3452256949   -1.9160616376
H        -2.7891731483   -5.6653547971    0.7958175961
H        -3.6946247462   -5.0622119618   -0.5688497709
H         2.9354737445  -11.2595017592    0.5652631398
H         3.2838587832  -12.7125856367    1.4992041288
H         4.5716699564  -11.9136937794    0.5820210352
H         5.3650581554  -11.1119051506    4.1467600354
H         5.9786656018  -11.8256193215    2.6498963293
H         4.7123354823  -12.6336330850    3.5289799549
$end
--------------------------------------------------------------

             Standard Nuclear Orientation (Angstroms)
    I     Atom           X                Y                Z
 ----------------------------------------------------------------
    1      C       0.1259330406    -4.5856407007     1.0666232976
    2      C       0.0042700506    -4.4430353632     2.5853123735
    3      C       1.5854549421    -4.1736596265     0.8712394581
    4      C       2.2917826359    -4.1380065184    -0.3139290275
    5      H       1.8175544917    -4.3980853921    -1.2526397491
    6      C       3.6301865853    -3.7679806962    -0.2776947208
    7      H       4.2013571834    -3.7302947589    -1.1958721989
    8      C       4.2415515143    -3.4488987935     0.9300099326
    9      H       5.2862599469    -3.1684483766     0.9418017932
   10      C       3.5289743835    -3.4893774555     2.1194113027
   11      H       4.0155700776    -3.2477721231     3.0554001202
   12      C       2.1909662447    -3.8521846880     2.0835528102
   13      C      -1.1046767133    -4.6826633207     3.3699493496
   14      H      -2.0350022192    -5.0238586746     2.9329118344
   15      C      -1.0085439523    -4.4777285629     4.7398934136
   16      H      -1.8670717723    -4.6613228642     5.3719033196
   17      C       0.1831588990    -4.0391147503     5.3053972217
   18      H       0.2419061104    -3.8843245150     6.3743221968
   19      C       1.2973213359    -3.7996709298     4.5147489287
   20      H       2.2225509948    -3.4611180066     4.9629447745
   21      C       1.2017454528    -4.0029771858     3.1471645391
   22      C      -2.1162244323    -3.7716021406     0.0064241153
   23      C      -2.9067215009    -2.7016639022    -0.4007682177
   24      H      -3.9107378075    -2.8960224640    -0.7550073323
   25      C      -2.4516072589    -1.3953468799    -0.3790529077
   26      C      -3.3057151604    -0.3402336095    -0.8139675622
   27      N      -4.0175422979     0.4903722477    -1.1716617515
   28      C      -0.8121876488    -3.5356785700     0.4566299005
   29      C      -0.3600504550    -2.2162182067     0.4709948028
   30      H       0.6400473034    -1.9937152962     0.8130460102
   31      C      -1.1493619097    -1.1535076527     0.0626404758
   32      C      -0.6212140124     0.1704374324     0.0956618228
   33      N      -0.1839688482     1.2344759592     0.1248001860
   34      H       5.6585794489    -6.2629635507     0.2282109434
   35      H       7.3522424556    -7.8003251968     1.2081941998
   36      C       5.3551095127    -7.1768010360     0.7221651881
   37      C       6.2972003589    -8.0316990766     1.2660241943
   38      C       4.0058130303    -7.4679938766     0.8193169910
   39      H       3.2928481777    -6.7730182842     0.3995660474
   40      C       5.8743709085    -9.2063501358     1.8692017256
   41      H       6.6192382993    -9.8839079118     2.2629713620
   42      C       3.5837623954    -8.6315055146     1.4608270893
   43      C       4.5302602539    -9.5410500360     1.9521786941
   44      N       2.2262839709    -8.9328679807     1.6358187693
   45      C       2.7551345767   -10.6683765003     3.2150967108
   46      C       1.8407268205    -9.7355689591     2.7129162094
   47      H       3.0893214195   -12.1296353954     4.7427683933
   48      C       2.3932653626   -11.4135446904     4.3281364628
   49      C       0.5756919222    -9.6155009909     3.2864154734
   50      C       1.1425168011   -11.2869575469     4.9135771785
   51      C       0.2302783761   -10.3959996698     4.3759339661
   52      H      -0.1392344735    -8.9068864660     2.8918918306
   53      H       0.8825620340   -11.8896409172     5.7733079585
   54      H      -0.7551495669   -10.2921264179     4.8110190746
   55      C       4.0327011018   -10.8926743604     2.4320444594
   56      C       5.0806186676   -11.6489345193     3.2412403098
   57      C       3.6829814061   -11.7441296591     1.1924053189
   58      C       1.2373184061    -8.1779060967     0.9600833316
   59      C       0.5232951342    -8.7469492730    -0.0834753805
   60      C      -0.4402690186    -7.9902377577    -0.7134082454
   61      C      -0.6892224098    -6.6559555835    -0.3769866267
   62      C       0.0594605082    -6.0672731261     0.6440311619
   63      C       0.9750007401    -6.8743854386     1.3244019515
   64      H       1.5405370752    -6.4678495454     2.1524140667
   65      H       0.7117665104    -9.7706885717    -0.3789908833
   66      H      -1.0284081051    -8.4407387958    -1.5038823072
   67      C      -1.8166428242    -5.9767694184    -1.0999995025
   68      C      -2.6864834312    -5.1468920033    -0.1610290282
   69      H      -2.4304083557    -6.7459481258    -1.5718684105
   70      H      -1.4528265221    -5.3452256949    -1.9160616376
   71      H      -2.7891731483    -5.6653547971     0.7958175961
   72      H      -3.6946247462    -5.0622119618    -0.5688497709
   73      H       2.9354737445   -11.2595017592     0.5652631398
   74      H       3.2838587832   -12.7125856367     1.4992041288
   75      H       4.5716699564   -11.9136937794     0.5820210352
   76      H       5.3650581554   -11.1119051506     4.1467600354
   77      H       5.9786656018   -11.8256193215     2.6498963293
   78      H       4.7123354823   -12.6336330850     3.5289799549
 ----------------------------------------------------------------

   15   -1855.5316136502      7.50e-09  Convergence criterion met
 Total energy in the final basis set =    -1855.5316136502

         TDDFT/TDA Excitation Energies
 ---------------------------------------------------

 Excited state   1: excitation energy (eV) =    3.3726
 Total energy for state  1:                 -1855.40767211 au
    Multiplicity: Triplet
    Trans. Mom.:  0.0000 X   0.0000 Y   0.0000 Z
    Strength   :     0.0000000000
    D(151) --> V(  1) amplitude = -0.2250
    D(157) --> V(  2) amplitude =  0.5771
    D(157) --> V(  3) amplitude =  0.5242

 Excited state   2: excitation energy (eV) =    3.4642
 Total energy for state  2:                 -1855.40430624 au
    Multiplicity: Triplet
    Trans. Mom.:  0.0000 X   0.0000 Y   0.0000 Z
    Strength   :     0.0000000000
    D(148) --> V(  1) amplitude =  0.2699
    D(149) --> V(  1) amplitude = -0.2766
    D(149) --> V(  2) amplitude =  0.2375
    D(150) --> V(  1) amplitude = -0.4398
    D(151) --> V(  1) amplitude = -0.5182
    D(157) --> V(  3) amplitude = -0.2575

 Excited state   3: excitation energy (eV) =    3.7604
 Total energy for state  3:                 -1855.39342295 au
    Multiplicity: Triplet
    Trans. Mom.:  0.0000 X   0.0000 Y   0.0000 Z
    Strength   :     0.0000000000
    D(155) --> V( 10) amplitude =  0.2376
    D(158) --> V(  8) amplitude =  0.2944
    D(158) --> V(  9) amplitude = -0.6998

 Excited state   4: excitation energy (eV) =    3.8356
 Total energy for state  4:                 -1855.39065934 au
    Multiplicity: Triplet
    Trans. Mom.:  0.0000 X   0.0000 Y   0.0000 Z
    Strength   :     0.0000000000
    D(158) --> V(  1) amplitude =  0.9566

 Excited state   5: excitation energy (eV) =    3.8831
 Total energy for state  5:                 -1855.38891343 au
    Multiplicity: Triplet
    Trans. Mom.:  0.0000 X   0.0000 Y   0.0000 Z
    Strength   :     0.0000000000
    D(152) --> V(  6) amplitude =  0.4201
    D(153) --> V(  5) amplitude = -0.2816
    D(154) --> V(  5) amplitude = -0.2787
    D(157) --> V(  5) amplitude =  0.2911
    D(158) --> V(  1) amplitude =  0.2226

 Excited state   6: excitation energy (eV) =    4.0281
 Total energy for state  6:                 -1855.38358538 au
    Multiplicity: Triplet
    Trans. Mom.:  0.0000 X   0.0000 Y   0.0000 Z
    Strength   :     0.0000000000
    D(154) --> V(  9) amplitude =  0.2952
    D(155) --> V(  7) amplitude = -0.3171
    D(155) --> V(  8) amplitude = -0.2176
    D(156) --> V(  9) amplitude = -0.2191
    D(156) --> V( 10) amplitude =  0.2935
    D(158) --> V( 11) amplitude = -0.5508

 ---------------------------------------------------

                    Orbital Energies (a.u.)
 --------------------------------------------------------------

 Alpha MOs
 -- Occupied --
-14.679 -14.657 -14.655 -10.522 -10.521 -10.512 -10.507 -10.501
-10.501 -10.498 -10.497 -10.493 -10.491 -10.490 -10.490 -10.488
-10.481 -10.477 -10.477 -10.475 -10.474 -10.474 -10.469 -10.469
-10.468 -10.468 -10.467 -10.467 -10.467 -10.466 -10.465 -10.464
-10.464 -10.463 -10.462 -10.451 -10.451 -10.444 -10.444 -10.443
-10.442 -10.441 -10.439 -10.437 -10.436 -10.430 -10.426  -1.091
 -1.042  -1.030  -1.020  -1.004  -0.988  -0.970  -0.961  -0.957
 -0.939  -0.934  -0.911  -0.899  -0.890  -0.885  -0.858  -0.857
 -0.848  -0.846  -0.834  -0.826  -0.819  -0.808  -0.795  -0.773
 -0.772  -0.748  -0.732  -0.725  -0.714  -0.711  -0.702  -0.691
 -0.682  -0.679  -0.673  -0.671  -0.667  -0.645  -0.619  -0.613
 -0.612  -0.611  -0.599  -0.584  -0.582  -0.573  -0.566  -0.562
 -0.540  -0.539  -0.537  -0.533  -0.530  -0.527  -0.524  -0.520
 -0.517  -0.510  -0.508  -0.503  -0.503  -0.501  -0.498  -0.494
 -0.491  -0.490  -0.487  -0.485  -0.474  -0.469  -0.461  -0.451
 -0.448  -0.444  -0.440  -0.439  -0.437  -0.436  -0.435  -0.431
 -0.428  -0.425  -0.425  -0.421  -0.420  -0.417  -0.415  -0.414
 -0.412  -0.403  -0.402  -0.399  -0.397  -0.396  -0.393  -0.379
 -0.374  -0.363  -0.350  -0.339  -0.322  -0.314  -0.306  -0.304
 -0.299  -0.291  -0.287  -0.280  -0.271  -0.230

                    Cartesian Multipole Moments
 -----------------------------------------------------------------
    Charge (ESU x 10^10)
                -0.0000
    Dipole Moment (Debye)
         X       1.0514      Y      -7.2793      Z       1.1317
       Tot       7.4414
    Quadrupole Moments (Debye-Ang)
        XX    -255.8749     XY      17.1772     YY    -252.6402
        XZ      -1.7981     YZ       2.0166     ZZ    -255.8024

 Total job time:  12345.00s(wall), 22318.59s(cpu)
        *  Thank you very much for using Q-Chem.  Have a nice day.  *
