 Q-Chem 5.1, Q-Chem, Inc., Pleasanton, CA (2018)
 Q-Chem 5.1.1 for Intel X86 EM64T Linux

User input:
--------------------------------------------------------------
$rem
threads 8
jobtype	sp
method PBEh-3c
basis def2-mSVP
mem_static	1024
mem_total	14000
sym_ignore	true
cis_n_roots             6
cis_singlets            true
cis_triplets		false
rpa                     false
state_analysis 		true
make_cube_files		true
cis_moments		true
sym_ignore              true
$end

$plots
att. det. elec. hole and diff. dens for s1opt.out
114 -6.15 9.30
138 -14.79 3.08
81 -3.72 8.40
0 0 0 2
1 2
$end

$molecule
0 1
C         0.1504746521   -4.5143578200    1.1103443641
C         0.0031383590   -4.3564452076    2.6241560565
C         1.6258342537   -4.1477895397    0.9512141656
C         2.3582017826   -4.1271199103   -0.2200183199
H         1.8815407386   -4.3446583213   -1.1682711173
C         3.7006256332   -3.7720764088   -0.1630208242
H         4.2800143320   -3.7142659749   -1.0757998014
C         4.2939865448   -3.4550932927    1.0553357672
H         5.3360361957   -3.1637837674    1.0835258751
C         3.5567517862   -3.4813005876    2.2305253373
H         4.0225139169   -3.2193570789    3.1721803230
C         2.2138866386   -3.8269976304    2.1720790622
C        -1.1352260845   -4.5215388491    3.3904151415
H        -2.0736625467   -4.8106029049    2.9362558562
C        -1.0672587367   -4.2709816641    4.7544160953
H        -1.9553124137   -4.3821786622    5.3629299731
C         0.1230843447   -3.8602689968    5.3442505679
H         0.1537038826   -3.6584571903    6.4066817968
C         1.2656253765   -3.6890835604    4.5757452155
H         2.1869538617   -3.3519550959    5.0341970093
C         1.1976881699   -3.9383748552    3.2144534488
C        -2.1573589287   -3.7391719232    0.1707997808
C        -2.9581687737   -2.6939068961   -0.2020478993
H        -4.0078487660   -2.8869536719   -0.3928864126
C        -2.4921260708   -1.3829159258   -0.4019341028
C        -3.3875250214   -0.3728648826   -0.7727322626
N        -4.1537368363    0.4423843132   -1.0856806863
C        -0.7494983802   -3.5132970719    0.3899866913
C        -0.2743952902   -2.2371321583    0.1615004637
H         0.7720505737   -2.0134703114    0.3146511352
C        -1.0747178975   -1.1702839711   -0.2517497222
C        -0.4676582102    0.0721463055   -0.5078375282
N         0.0546695537    1.0867643088   -0.7123381843
H         5.5716170217   -6.2628078508    0.1165904663
H         7.3029623779   -7.7713830574    1.0772519737
C         5.2896905247   -7.1694974389    0.6307630581
C         6.2538484291   -8.0145084389    1.1699515912
C         3.9584001742   -7.4732547862    0.7647297805
H         3.2232150141   -6.8011113636    0.3511183082
C         5.8753985051   -9.1860037594    1.8152088229
H         6.6491716640   -9.8400738196    2.1881603920
C         3.5723769243   -8.6279510431    1.4748448344
C         4.5463712411   -9.5260834318    1.9726818106
N         2.2428888499   -8.8819199078    1.7102374956
C         2.7425745436  -10.7747328833    3.1173625630
C         1.8287868861   -9.8180700064    2.6265265724
H         2.9509352081  -12.4238769850    4.4642093150
C         2.2862499803  -11.6726242105    4.0644857324
C         0.4960416296   -9.7943880225    3.0833526686
C         0.9747671015  -11.6452883648    4.5202887668
C         0.0794034600  -10.7044430651    4.0227246375
H        -0.1898195675   -9.0470217398    2.7154435050
H         0.6536744918  -12.3595293634    5.2654086132
H        -0.9396283206  -10.6753705092    4.3802074203
C         4.1099756922  -10.8763324882    2.4912822617
C         5.1347071503  -11.4928913150    3.4420309389
C         3.9666664731  -11.8056879432    1.2552449141
C         1.2345824969   -8.1152188269    1.0293523527
C         0.5043091538   -8.7174482486    0.0187201720
C        -0.4814780939   -7.9635025167   -0.5771692044
C        -0.7293305141   -6.6267034654   -0.2381786222
C         0.0739630925   -6.0099891925    0.7275169213
C         1.0075611083   -6.8105207355    1.3908871588
H         1.5907400182   -6.3886536219    2.1990765360
H         0.6833836838   -9.7435653518   -0.2757333506
H        -1.0975653475   -8.4227847111   -1.3400072210
C        -1.9143235894   -5.9726457306   -0.8869420660
C        -2.7167466489   -5.1256325625    0.1007815179
H        -2.5424778802   -6.7605008819   -1.3087219585
H        -1.6024152640   -5.3458538521   -1.7261154796
H        -2.7422631490   -5.6432656485    1.0685600771
H        -3.7546787770   -5.0744806944   -0.2317180371
H         3.2399320048  -11.4277766924    0.5356657779
H         3.6409941451  -12.7973206898    1.5701072158
H         4.9249267844  -11.8998452662    0.7443849536
H         5.2855700747  -10.8808894782    4.3306585040
H         6.0941770224  -11.6297859458    2.9475262200
H         4.8280445848  -12.4880238898    3.7576568251
$end
--------------------------------------------------------------

             Standard Nuclear Orientation (Angstroms)
    I     Atom           X                Y                Z
 ----------------------------------------------------------------
    1      C       0.1504746521    -4.5143578200     1.1103443641
    2      C       0.0031383590    -4.3564452076     2.6241560565
    3      C       1.6258342537    -4.1477895397     0.9512141656
    4      C       2.3582017826    -4.1271199103    -0.2200183199
    5      H       1.8815407386    -4.3446583213    -1.1682711173
    6      C       3.7006256332    -3.7720764088    -0.1630208242
    7      H       4.2800143320    -3.7142659749    -1.0757998014
    8      C       4.2939865448    -3.4550932927     1.0553357672
    9      H       5.3360361957    -3.1637837674     1.0835258751
   10      C       3.5567517862    -3.4813005876     2.2305253373
   11      H       4.0225139169    -3.2193570789     3.1721803230
   12      C       2.2138866386    -3.8269976304     2.1720790622
   13      C      -1.1352260845    -4.5215388491     3.3904151415
   14      H      -2.0736625467    -4.8106029049     2.9362558562
   15      C      -1.0672587367    -4.2709816641     4.7544160953
   16      H      -1.9553124137    -4.3821786622     5.3629299731
   17      C       0.1230843447    -3.8602689968     5.3442505679
   18      H       0.1537038826    -3.6584571903     6.4066817968
   19      C       1.2656253765    -3.6890835604     4.5757452155
   20      H       2.1869538617    -3.3519550959     5.0341970093
   21      C       1.1976881699    -3.9383748552     3.2144534488
   22      C      -2.1573589287    -3.7391719232     0.1707997808
   23      C      -2.9581687737    -2.6939068961    -0.2020478993
   24      H      -4.0078487660    -2.8869536719    -0.3928864126
   25      C      -2.4921260708    -1.3829159258    -0.4019341028
   26      C      -3.3875250214    -0.3728648826    -0.7727322626
   27      N      -4.1537368363     0.4423843132    -1.0856806863
   28      C      -0.7494983802    -3.5132970719     0.3899866913
   29      C      -0.2743952902    -2.2371321583     0.1615004637
   30      H       0.7720505737    -2.0134703114     0.3146511352
   31      C      -1.0747178975    -1.1702839711    -0.2517497222
   32      C      -0.4676582102     0.0721463055    -0.5078375282
   33      N       0.0546695537     1.0867643088    -0.7123381843
   34      H       5.5716170217    -6.2628078508     0.1165904663
   35      H       7.3029623779    -7.7713830574     1.0772519737
   36      C       5.2896905247    -7.1694974389     0.6307630581
   37      C       6.2538484291    -8.0145084389     1.1699515912
   38      C       3.9584001742    -7.4732547862     0.7647297805
   39      H       3.2232150141    -6.8011113636     0.3511183082
   40      C       5.8753985051    -9.1860037594     1.8152088229
   41      H       6.6491716640    -9.8400738196     2.1881603920
   42      C       3.5723769243    -8.6279510431     1.4748448344
   43      C       4.5463712411    -9.5260834318     1.9726818106
   44      N       2.2428888499    -8.8819199078     1.7102374956
   45      C       2.7425745436   -10.7747328833     3.1173625630
   46      C       1.8287868861    -9.8180700064     2.6265265724
   47      H       2.9509352081   -12.4238769850     4.4642093150
   48      C       2.2862499803   -11.6726242105     4.0644857324
   49      C       0.4960416296    -9.7943880225     3.0833526686
   50      C       0.9747671015   -11.6452883648     4.5202887668
   51      C       0.0794034600   -10.7044430651     4.0227246375
   52      H      -0.1898195675    -9.0470217398     2.7154435050
   53      H       0.6536744918   -12.3595293634     5.2654086132
   54      H      -0.9396283206   -10.6753705092     4.3802074203
   55      C       4.1099756922   -10.8763324882     2.4912822617
   56      C       5.1347071503   -11.4928913150     3.4420309389
   57      C       3.9666664731   -11.8056879432     1.2552449141
   58      C       1.2345824969    -8.1152188269     1.0293523527
   59      C       0.5043091538    -8.7174482486     0.0187201720
   60      C      -0.4814780939    -7.9635025167    -0.5771692044
   61      C      -0.7293305141    -6.6267034654    -0.2381786222
   62      C       0.0739630925    -6.0099891925     0.7275169213
   63      C       1.0075611083    -6.8105207355     1.3908871588
   64      H       1.5907400182    -6.3886536219     2.1990765360
   65      H       0.6833836838    -9.7435653518    -0.2757333506
   66      H      -1.0975653475    -8.4227847111    -1.3400072210
   67      C      -1.9143235894    -5.9726457306    -0.8869420660
   68      C      -2.7167466489    -5.1256325625     0.1007815179
   69      H      -2.5424778802    -6.7605008819    -1.3087219585
   70      H      -1.6024152640    -5.3458538521    -1.7261154796
   71      H      -2.7422631490    -5.6432656485     1.0685600771
   72      H      -3.7546787770    -5.0744806944    -0.2317180371
   73      H       3.2399320048   -11.4277766924     0.5356657779
   74      H       3.6409941451   -12.7973206898     1.5701072158
   75      H       4.9249267844   -11.8998452662     0.7443849536
   76      H       5.2855700747   -10.8808894782     4.3306585040
   77      H       6.0941770224   -11.6297859458     2.9475262200
   78      H       4.8280445848   -12.4880238898     3.7576568251
 ----------------------------------------------------------------

   15   -1855.5183421832      7.08e-09  Convergence criterion met
 Total energy in the final basis set =    -1855.5183421832

         TDDFT/TDA Excitation Energies
 ---------------------------------------------------

 Excited state   1: excitation energy (eV) =    3.1200
 Total energy for state  1:                 -1855.40368374 au
    Multiplicity: Singlet
    Trans. Mom.: -0.0820 X   0.1544 Y  -0.0352 Z
    Strength   :     0.0024312757
    D(158) --> V(  1) amplitude =  0.9975

 Excited state   2: excitation energy (eV) =    3.9415
 Total energy for state  2:                 -1855.37349351 au
    Multiplicity: Singlet
    Trans. Mom.: -0.0099 X  -0.0703 Y   0.0050 Z
    Strength   :     0.0004894215
    D(158) --> V(  2) amplitude =  0.9473
    D(158) --> V(  3) amplitude =  0.2777

 Excited state   3: excitation energy (eV) =    4.0185
 Total energy for state  3:                 -1855.37066438 au
    Multiplicity: Singlet
    Trans. Mom.:  0.3229 X  -0.1941 Y   0.2573 Z
    Strength   :     0.0204902661
    D(157) --> V(  1) amplitude =  0.9870

 Excited state   4: excitation energy (eV) =    4.1028
 Total energy for state  4:                 -1855.36756533 au
    Multiplicity: Singlet
    Trans. Mom.:  0.0836 X   0.0547 Y   0.0874 Z
    Strength   :     0.0017722396
    D(158) --> V(  4) amplitude =  0.7570
    D(158) --> V(  5) amplitude =  0.5964

 Excited state   5: excitation energy (eV) =    4.1302
 Total energy for state  5:                 -1855.36656098 au
    Multiplicity: Singlet
    Trans. Mom.: -0.1865 X   0.3800 Y  -0.2051 Z
    Strength   :     0.0223901995
    D(158) --> V(  3) amplitude =  0.6272
    D(158) --> V(  4) amplitude = -0.2236
    D(158) --> V(  6) amplitude =  0.6886

 Excited state   6: excitation energy (eV) =    4.4611
 Total energy for state  6:                 -1855.35439881 au
    Multiplicity: Singlet
    Trans. Mom.: -0.1619 X  -0.1731 Y   0.1721 Z
    Strength   :     0.0093770664
    D(158) --> V(  2) amplitude = -0.2373
    D(158) --> V(  3) amplitude =  0.6527
    D(158) --> V(  6) amplitude = -0.6336
    D(158) --> V(  7) amplitude = -0.2271

 ---------------------------------------------------

                    Orbital Energies (a.u.)
 --------------------------------------------------------------

 Alpha MOs
 -- Occupied --
-14.680 -14.663 -14.660 -10.530 -10.528 -10.514 -10.511 -10.505
-10.505 -10.502 -10.499 -10.496 -10.493 -10.491 -10.491 -10.488
-10.481 -10.479 -10.477 -10.477 -10.475 -10.474 -10.470 -10.469
-10.468 -10.468 -10.468 -10.467 -10.467 -10.466 -10.465 -10.465
-10.465 -10.464 -10.463 -10.450 -10.449 -10.442 -10.442 -10.441
-10.440 -10.440 -10.436 -10.435 -10.433 -10.429 -10.426  -1.097
 -1.041  -1.030  -1.020  -1.002  -0.988  -0.969  -0.959  -0.955
 -0.938  -0.935  -0.909  -0.902  -0.892  -0.885  -0.860  -0.857
 -0.848  -0.847  -0.835  -0.826  -0.818  -0.808  -0.795  -0.777
 -0.771  -0.747  -0.732  -0.728  -0.714  -0.713  -0.706  -0.690
 -0.683  -0.679  -0.673  -0.668  -0.666  -0.646  -0.617  -0.615
 -0.614  -0.611  -0.600  -0.588  -0.582  -0.572  -0.566  -0.562
 -0.541  -0.539  -0.536  -0.533  -0.531  -0.527  -0.524  -0.521
 -0.518  -0.512  -0.509  -0.504  -0.503  -0.500  -0.497  -0.492
 -0.490  -0.488  -0.485  -0.485  -0.473  -0.468  -0.461  -0.452
 -0.449  -0.445  -0.442  -0.441  -0.439  -0.438  -0.436  -0.434
 -0.429  -0.428  -0.427  -0.421  -0.421  -0.418  -0.415  -0.412
 -0.410  -0.403  -0.400  -0.399  -0.398  -0.396  -0.393  -0.375
 -0.374  -0.366  -0.350  -0.336  -0.326  -0.313  -0.306  -0.303
 -0.300  -0.289  -0.285  -0.282  -0.271  -0.219

                    Cartesian Multipole Moments
 -----------------------------------------------------------------
    Charge (ESU x 10^10)
                -0.0000
    Dipole Moment (Debye)
         X       0.6151      Y      -6.5949      Z       1.6765
       Tot       6.8324
    Quadrupole Moments (Debye-Ang)
        XX    -256.9205     XY      19.1175     YY    -256.3177
        XZ      -2.3641     YZ       4.8374     ZZ    -258.9262

 Total job time:  12037.66s(wall), 21084.62s(cpu)
        *  Thank you very much for using Q-Chem.  Have a nice day.  *
