 Q-Chem 5.1, Q-Chem, Inc., Pleasanton, CA (2018)
 Q-Chem 5.1.1 for Intel X86 EM64T Linux

User input:
--------------------------------------------------------------
$rem
threads 8
jobtype	sp
method PBEh-3c
basis def2-mSVP
mem_static	1024
mem_total	14000
sym_ignore	true
cis_n_roots             6
cis_singlets            false
cis_triplets		true
rpa                     false
state_analysis 		true
make_cube_files		true
cis_moments		true
sym_ignore              true
$end

$plots
att. det. elec. hole and diff. dens for gsopt.out
181 -9.89 12.27
143 -9.16 9.22
81 -6.23 5.88
0 0 0 2
1 2
$end

$molecule
0 1
C        -2.5792191630    0.3991952231   -0.1815217904
C        -2.4221379803   -0.9947463761   -0.0162027116
C        -1.1609331440   -1.5539641155    0.0446976079
C        -0.0349708125   -0.7358738920   -0.0660292536
C        -0.1902133953    0.6581785055   -0.2438458488
C        -1.4706376865    1.2148224489   -0.2977736821
B         1.3836955468   -1.3575669101   -0.0072533564
C         2.6326372481   -0.4531925881   -0.1984462238
C         2.4829560451    0.9442212335   -0.3739151016
B         1.0596042083    1.5657287895   -0.4014827413
C         3.9066994151   -1.0207889218   -0.2168059203
C         5.0148645325   -0.2179251321   -0.4144361553
C         4.8728434927    1.1774642525   -0.5750290989
C         3.6114539575    1.7498136200   -0.5498596460
C         6.7102196235    2.9968900743   -1.0110939700
C         6.2071225470    1.7442175437   -0.7841300333
C         7.1045074935    0.6595634632   -0.7503259800
C         8.4758972011    0.7619836954   -0.9420528104
C         8.9700316750    2.0680468212   -1.1724385016
C         8.1053239707    3.1373214344   -1.2016488954
C         6.4294793905   -0.5538515123   -0.5282529738
C         7.1497138445   -1.7174285873   -0.4929995308
C         8.5494767519   -1.6442472443   -0.6800471251
C         9.2022202383   -0.4531880486   -0.8973509967
C        -6.1869905645    1.6981425537   -0.3028454458
C        -6.8166707956    0.4846601474   -0.1584186348
C        -6.0518835088   -0.6984563890   -0.0289069376
C        -4.6696888260   -0.5411505002   -0.0549859163
C        -4.0138570269    0.6941858453   -0.2036491950
C        -4.7779351621    1.8243830061   -0.3291636608
C        -6.5291208919   -2.0229574416    0.1210856434
C        -5.6409607325   -3.0667450873    0.2297040020
C        -4.2391197448   -2.8751458623    0.2014725022
C        -3.7529459833   -1.6013540598    0.0599656731
C         0.8335127237    3.1026601927   -0.6274410264
C         1.5358989252   -2.9006738668    0.2528810672
C         1.6028863423   -3.8156475312   -0.8326811702
C         1.7185902259   -5.2081310066   -0.5865407129
C         1.7633096873   -5.6577168416    0.7489417573
C         1.6872199896   -4.7673033047    1.7805750466
C         1.5687849360   -3.3795460998    1.5461490932
C         1.5443423966   -3.3781603332   -2.1789261545
C         1.6026114374   -4.2664658743   -3.2159346575
C         1.7247595839   -5.6471116684   -2.9644681576
C         1.7813531151   -6.1038031059   -1.6784966932
C         0.6490157981    3.9714076717    0.4814140058
C         0.3451422314    5.3397710761    0.2721036196
C         0.2413567202    5.8121691468   -1.0535273069
C         0.4207201691    4.9636902666   -2.1081814427
C         0.7121317113    3.5959594605   -1.9100762452
C         0.7405077054    3.4972667258    1.8122330742
C         0.5362069904    4.3324295184    2.8738915368
C         0.2342630290    5.6916999501    2.6602652304
C         0.1438065546    6.1820340186    1.3881684721
C         0.8349308494    2.6789757783   -3.0963513615
C         1.4475365375   -2.4370516127    2.7107402860
H        -1.0422859014   -2.6243754703    0.1725563323
H        -1.5920767172    2.2826944959   -0.4352495276
H         4.0182785192   -2.0921406821   -0.0907101035
H         3.4858192447    2.8188316807   -0.6802405264
H         6.0718990953    3.8704864859   -1.0522980846
H        10.0293214470    2.2277887465   -1.3304826000
H         8.5028234009    4.1274669385   -1.3813673257
H         6.6767431007   -2.6789405915   -0.3347919009
H         9.1234387697   -2.5612815814   -0.6550571579
H        10.2757055754   -0.4478914307   -1.0400525367
H        -6.7880306489    2.5925317888   -0.4011378098
H        -7.8987566663    0.4344004097   -0.1451727012
H        -4.3341426915    2.8047959991   -0.4458483768
H        -7.5947042397   -2.2163373370    0.1484238057
H        -6.0228635296   -4.0734409422    0.3400466629
H        -3.5838914133   -3.7329251327    0.2889663982
H         1.8555198290   -6.7192071766    0.9460534040
H         1.7164061462   -5.1264600309    2.8025663850
H         1.4485035880   -2.3192800660   -2.3920390398
H         1.5549212582   -3.9097954126   -4.2365061498
H         1.7716394196   -6.3421470355   -3.7926577602
H         1.8735807191   -7.1651603229   -1.4798348025
H         0.0116273710    6.8567797923   -1.2262231123
H         0.3311173702    5.3397045416   -3.1207831656
H         0.9731556345    2.4531026263    1.9909929939
H         0.6054033663    3.9501378570    3.8837682963
H         0.0737654876    6.3447680714    3.5078996241
H        -0.0887826827    7.2268518390    1.2195778447
H         0.8974331858    3.2334107543   -4.0324857906
H        -0.0284908130    2.0128970542   -3.1706389430
H         1.7218722312    2.0457614467   -3.0326577710
H         1.6626692983   -2.9331014884    3.6568108437
H         0.4381071647   -2.0245514186    2.7794521761
H         2.1336246577   -1.5918929581    2.6236188676
$end

--------------------------------------------------------------

             Standard Nuclear Orientation (Angstroms)
    I     Atom           X                Y                Z
 ----------------------------------------------------------------
    1      C      -2.5792191630     0.3991952231    -0.1815217904
    2      C      -2.4221379803    -0.9947463761    -0.0162027116
    3      C      -1.1609331440    -1.5539641155     0.0446976079
    4      C      -0.0349708125    -0.7358738920    -0.0660292536
    5      C      -0.1902133953     0.6581785055    -0.2438458488
    6      C      -1.4706376865     1.2148224489    -0.2977736821
    7      B       1.3836955468    -1.3575669101    -0.0072533564
    8      C       2.6326372481    -0.4531925881    -0.1984462238
    9      C       2.4829560451     0.9442212335    -0.3739151016
   10      B       1.0596042083     1.5657287895    -0.4014827413
   11      C       3.9066994151    -1.0207889218    -0.2168059203
   12      C       5.0148645325    -0.2179251321    -0.4144361553
   13      C       4.8728434927     1.1774642525    -0.5750290989
   14      C       3.6114539575     1.7498136200    -0.5498596460
   15      C       6.7102196235     2.9968900743    -1.0110939700
   16      C       6.2071225470     1.7442175437    -0.7841300333
   17      C       7.1045074935     0.6595634632    -0.7503259800
   18      C       8.4758972011     0.7619836954    -0.9420528104
   19      C       8.9700316750     2.0680468212    -1.1724385016
   20      C       8.1053239707     3.1373214344    -1.2016488954
   21      C       6.4294793905    -0.5538515123    -0.5282529738
   22      C       7.1497138445    -1.7174285873    -0.4929995308
   23      C       8.5494767519    -1.6442472443    -0.6800471251
   24      C       9.2022202383    -0.4531880486    -0.8973509967
   25      C      -6.1869905645     1.6981425537    -0.3028454458
   26      C      -6.8166707956     0.4846601474    -0.1584186348
   27      C      -6.0518835088    -0.6984563890    -0.0289069376
   28      C      -4.6696888260    -0.5411505002    -0.0549859163
   29      C      -4.0138570269     0.6941858453    -0.2036491950
   30      C      -4.7779351621     1.8243830061    -0.3291636608
   31      C      -6.5291208919    -2.0229574416     0.1210856434
   32      C      -5.6409607325    -3.0667450873     0.2297040020
   33      C      -4.2391197448    -2.8751458623     0.2014725022
   34      C      -3.7529459833    -1.6013540598     0.0599656731
   35      C       0.8335127237     3.1026601927    -0.6274410264
   36      C       1.5358989252    -2.9006738668     0.2528810672
   37      C       1.6028863423    -3.8156475312    -0.8326811702
   38      C       1.7185902259    -5.2081310066    -0.5865407129
   39      C       1.7633096873    -5.6577168416     0.7489417573
   40      C       1.6872199896    -4.7673033047     1.7805750466
   41      C       1.5687849360    -3.3795460998     1.5461490932
   42      C       1.5443423966    -3.3781603332    -2.1789261545
   43      C       1.6026114374    -4.2664658743    -3.2159346575
   44      C       1.7247595839    -5.6471116684    -2.9644681576
   45      C       1.7813531151    -6.1038031059    -1.6784966932
   46      C       0.6490157981     3.9714076717     0.4814140058
   47      C       0.3451422314     5.3397710761     0.2721036196
   48      C       0.2413567202     5.8121691468    -1.0535273069
   49      C       0.4207201691     4.9636902666    -2.1081814427
   50      C       0.7121317113     3.5959594605    -1.9100762452
   51      C       0.7405077054     3.4972667258     1.8122330742
   52      C       0.5362069904     4.3324295184     2.8738915368
   53      C       0.2342630290     5.6916999501     2.6602652304
   54      C       0.1438065546     6.1820340186     1.3881684721
   55      C       0.8349308494     2.6789757783    -3.0963513615
   56      C       1.4475365375    -2.4370516127     2.7107402860
   57      H      -1.0422859014    -2.6243754703     0.1725563323
   58      H      -1.5920767172     2.2826944959    -0.4352495276
   59      H       4.0182785192    -2.0921406821    -0.0907101035
   60      H       3.4858192447     2.8188316807    -0.6802405264
   61      H       6.0718990953     3.8704864859    -1.0522980846
   62      H      10.0293214470     2.2277887465    -1.3304826000
   63      H       8.5028234009     4.1274669385    -1.3813673257
   64      H       6.6767431007    -2.6789405915    -0.3347919009
   65      H       9.1234387697    -2.5612815814    -0.6550571579
   66      H      10.2757055754    -0.4478914307    -1.0400525367
   67      H      -6.7880306489     2.5925317888    -0.4011378098
   68      H      -7.8987566663     0.4344004097    -0.1451727012
   69      H      -4.3341426915     2.8047959991    -0.4458483768
   70      H      -7.5947042397    -2.2163373370     0.1484238057
   71      H      -6.0228635296    -4.0734409422     0.3400466629
   72      H      -3.5838914133    -3.7329251327     0.2889663982
   73      H       1.8555198290    -6.7192071766     0.9460534040
   74      H       1.7164061462    -5.1264600309     2.8025663850
   75      H       1.4485035880    -2.3192800660    -2.3920390398
   76      H       1.5549212582    -3.9097954126    -4.2365061498
   77      H       1.7716394196    -6.3421470355    -3.7926577602
   78      H       1.8735807191    -7.1651603229    -1.4798348025
   79      H       0.0116273710     6.8567797923    -1.2262231123
   80      H       0.3311173702     5.3397045416    -3.1207831656
   81      H       0.9731556345     2.4531026263     1.9909929939
   82      H       0.6054033663     3.9501378570     3.8837682963
   83      H       0.0737654876     6.3447680714     3.5078996241
   84      H      -0.0887826827     7.2268518390     1.2195778447
   85      H       0.8974331858     3.2334107543    -4.0324857906
   86      H      -0.0284908130     2.0128970542    -3.1706389430
   87      H       1.7218722312     2.0457614467    -3.0326577710
   88      H       1.6626692983    -2.9331014884     3.6568108437
   89      H       0.4381071647    -2.0245514186     2.7794521761
   90      H       2.1336246577    -1.5918929581     2.6236188676
 ----------------------------------------------------------------

   15   -2123.3786150648      6.36e-09  Convergence criterion met
 Total energy in the final basis set =    -2123.3786150648

         TDDFT/TDA Excitation Energies
 ---------------------------------------------------

 Excited state   1: excitation energy (eV) =    2.3234
 Total energy for state  1:                 -2123.29323196 au
    Multiplicity: Triplet
    Trans. Mom.:  0.0000 X   0.0000 Y   0.0000 Z
    Strength   :     0.0000000000
    D(177) --> V(  2) amplitude = -0.2685
    D(181) --> V(  1) amplitude =  0.8569
    D(182) --> V(  1) amplitude = -0.2830

 Excited state   2: excitation energy (eV) =    2.4833
 Total energy for state  2:                 -2123.28735456 au
    Multiplicity: Triplet
    Trans. Mom.:  0.0000 X   0.0000 Y   0.0000 Z
    Strength   :     0.0000000000
    D(180) --> V(  2) amplitude =  0.4884
    D(181) --> V(  1) amplitude =  0.2356
    D(182) --> V(  1) amplitude =  0.7006
    D(183) --> V(  1) amplitude =  0.2843

 Excited state   3: excitation energy (eV) =    2.5407
 Total energy for state  3:                 -2123.28524509 au
    Multiplicity: Triplet
    Trans. Mom.:  0.0000 X   0.0000 Y   0.0000 Z
    Strength   :     0.0000000000
    D(180) --> V(  1) amplitude =  0.7167
    D(180) --> V(  4) amplitude =  0.2494
    D(182) --> V(  2) amplitude =  0.5246

 Excited state   4: excitation energy (eV) =    2.7595
 Total energy for state  4:                 -2123.27720548 au
    Multiplicity: Triplet
    Trans. Mom.:  0.0000 X   0.0000 Y   0.0000 Z
    Strength   :     0.0000000000
    D(177) --> V(  1) amplitude = -0.6857
    D(181) --> V(  2) amplitude =  0.5329

 Excited state   5: excitation energy (eV) =    2.8230
 Total energy for state  5:                 -2123.27487180 au
    Multiplicity: Triplet
    Trans. Mom.:  0.0000 X   0.0000 Y   0.0000 Z
    Strength   :     0.0000000000
    D(184) --> V(  1) amplitude =  0.9070

 Excited state   6: excitation energy (eV) =    2.9042
 Total energy for state  6:                 -2123.27188904 au
    Multiplicity: Triplet
    Trans. Mom.:  0.0000 X   0.0000 Y   0.0000 Z
    Strength   :     0.0000000000
    D(182) --> V(  1) amplitude = -0.2372
    D(183) --> V(  1) amplitude =  0.8898

 ---------------------------------------------------

                    Orbital Energies (a.u.)
 --------------------------------------------------------------

 Alpha MOs
 -- Occupied --
-10.463 -10.463 -10.463 -10.463 -10.462 -10.462 -10.462 -10.461
-10.461 -10.461 -10.460 -10.460 -10.460 -10.460 -10.460 -10.459
-10.459 -10.458 -10.458 -10.458 -10.458 -10.458 -10.453 -10.453
-10.453 -10.452 -10.452 -10.452 -10.451 -10.451 -10.451 -10.450
-10.445 -10.445 -10.444 -10.444 -10.443 -10.443 -10.443 -10.443
-10.443 -10.443 -10.443 -10.442 -10.441 -10.441 -10.433 -10.432
-10.432 -10.431 -10.428 -10.428 -10.427 -10.426  -6.948  -6.948
 -1.015  -1.014  -0.975  -0.975  -0.960  -0.958  -0.932  -0.931
 -0.922  -0.922  -0.908  -0.899  -0.870  -0.867  -0.853  -0.852
 -0.846  -0.845  -0.845  -0.845  -0.821  -0.815  -0.811  -0.809
 -0.807  -0.803  -0.765  -0.765  -0.734  -0.728  -0.725  -0.719
 -0.699  -0.697  -0.688  -0.686  -0.678  -0.673  -0.670  -0.669
 -0.664  -0.655  -0.646  -0.646  -0.595  -0.594  -0.591  -0.588
 -0.582  -0.576  -0.575  -0.574  -0.573  -0.566  -0.565  -0.548
 -0.548  -0.542  -0.531  -0.527  -0.524  -0.511  -0.506  -0.504
 -0.503  -0.501  -0.499  -0.495  -0.494  -0.489  -0.485  -0.483
 -0.482  -0.481  -0.479  -0.479  -0.478  -0.475  -0.471  -0.470
 -0.467  -0.464  -0.453  -0.452  -0.447  -0.442  -0.440  -0.440
 -0.437  -0.436  -0.433  -0.431  -0.429  -0.422  -0.419  -0.413
 -0.406  -0.399  -0.397  -0.393  -0.392  -0.392  -0.389  -0.387
 -0.385  -0.385  -0.379  -0.369  -0.367  -0.367  -0.352  -0.351
 -0.349  -0.338  -0.323  -0.317  -0.316  -0.311  -0.294  -0.293
 -0.279  -0.275  -0.275  -0.261  -0.255  -0.254  -0.244  -0.243

                    Cartesian Multipole Moments
 -----------------------------------------------------------------
    Charge (ESU x 10^10)
                -0.0000
    Dipole Moment (Debye)
         X      -0.1209      Y      -0.1079      Z      -0.3129
       Tot       0.3523
    Quadrupole Moments (Debye-Ang)
        XX    -274.1993     XY      -1.1309     YY    -282.5270
        XZ      -4.6224     YZ      -6.8573     ZZ    -313.0684

 Total job time:  22073.39s(wall), 30892.65s(cpu)
        *  Thank you very much for using Q-Chem.  Have a nice day.  *
