 Q-Chem 5.1, Q-Chem, Inc., Pleasanton, CA (2018)
 Q-Chem 5.1.1 for Intel X86 EM64T Linux

User input:
--------------------------------------------------------------
$rem
threads 8
jobtype	opt
method PBEh-3c
basis def2-mSVP
mem_static	512
mem_total	6096
sym_ignore	true
$end

$molecule
read incoords.mol
$end

--------------------------------------------------------------

   15   -3232.4657353730      7.44e-09  Convergence criterion met
 Total energy in the final basis set =    -3232.4657353730
   12   -3232.5047986182      6.52e-09  Convergence criterion met
 Total energy in the final basis set =    -3232.5047986182
   12   -3232.5172084101      7.26e-09  Convergence criterion met
 Total energy in the final basis set =    -3232.5172084101
   12   -3232.5207787579      5.49e-09  Convergence criterion met
 Total energy in the final basis set =    -3232.5207787579
   12   -3232.5218144361      6.08e-09  Convergence criterion met
 Total energy in the final basis set =    -3232.5218144361
   11   -3232.5232364904      9.22e-09  Convergence criterion met
 Total energy in the final basis set =    -3232.5232364904
   11   -3232.5243704103      7.70e-09  Convergence criterion met
 Total energy in the final basis set =    -3232.5243704103
   11   -3232.5253407499      8.36e-09  Convergence criterion met
    9   -3232.5285158709      9.27e-09  Convergence criterion met
 Total energy in the final basis set =    -3232.5285158709
    9   -3232.5284993730      6.56e-09  Convergence criterion met
 Total energy in the final basis set =    -3232.5284993730
   10   -3232.5284740408      5.23e-09  Convergence criterion met
 Total energy in the final basis set =    -3232.5284740408
    9   -3232.5284796622      5.84e-09  Convergence criterion met
 Total energy in the final basis set =    -3232.5284796622
    9   -3232.5284669133      8.36e-09  Convergence criterion met
 Total energy in the final basis set =    -3232.5284669133
    9   -3232.5284807714      4.68e-09  Convergence criterion met
 Total energy in the final basis set =    -3232.5284807714

             Standard Nuclear Orientation (Angstroms)
    I     Atom           X                Y                Z
 ----------------------------------------------------------------
    1      N       1.3477826627    -0.2809220714    -2.0937323489
    2      C       0.8953272593     0.8609795506    -1.4359135865
    3      C       1.8285008850     1.8153955610    -1.0203068390
    4      C       1.4262516631     2.9611839911    -0.3678447266
    5      H       2.1769814827     3.6787613324    -0.0636159383
    6      C       0.0791729106     3.1762689888    -0.0986640963
    7      H      -0.2289758172     4.0730459618     0.4207022416
    8      C      -0.8518372797     2.2379511537    -0.4996372228
    9      H      -1.9036235230     2.3891075346    -0.2970245572
   10      C      -0.4482654961     1.0891141125    -1.1686279903
   11      H      -1.1858755496     0.3618333726    -1.4793493386
   12      C       2.6741890590    -0.3371850612    -2.5163480440
   13      C       3.1574391289    -1.3367124192    -3.3506939856
   14      H       2.4884072654    -2.1113553796    -3.6998599974
   15      C       4.4912695180    -1.3523386774    -3.7393691505
   16      H       4.8422630289    -2.1437866276    -4.3878485870
   17      C       5.3572293454    -0.3677943817    -3.3052109738
   18      H       6.3955904669    -0.3725748954    -3.6062370672
   19      C       4.8832384343     0.6387443878    -2.4717678485
   20      H       5.5394495628     1.4210299672    -2.1131687318
   21      C       3.5628001522     0.6480417487    -2.0766721952
   22      C       0.4195543422    -1.2545110331    -2.5429310258
   23      C       0.0903740068    -2.3207939720    -1.7239522820
   24      H       0.5449695662    -2.3931865195    -0.7424170298
   25      C      -0.8122799580    -3.2883465159    -2.1514936069
   26      C      -0.1571640062    -1.1466431975    -3.7987698197
   27      H       0.1068014332    -0.3077530561    -4.4336099074
   28      C      -1.0569475283    -2.1048644201    -4.2492978543
   29      C      -1.3900371548    -3.1892192885    -3.4247803866
   30      C      -1.6112243295    -1.9887022445    -5.6464769440
   31      H      -2.6325555395    -2.3775820588    -5.6877336927
   32      H      -1.6861427008    -0.9337373979    -5.9213052978
   33      C      -0.7504692512    -2.7169415494    -6.6772907560
   34      C      -1.1984314092    -4.3968469310    -1.2061370101
   35      H      -0.3440251717    -4.6538751248    -0.5751602928
   36      H      -1.4399603262    -5.3065842029    -1.7623020090
   37      C      -2.3836571744    -4.0146111287    -0.3221090233
   38      H      -3.2647676071    -3.7810564331    -0.9198238781
   39      H      -2.6469592385    -4.8309365307     0.3509352711
   40      H      -2.1543428074    -3.1395341331     0.2868244395
   41      B      -2.4076665783    -4.2835743839    -3.9190695692
   42      C      -3.9393100922    -4.0137304460    -3.8363286261
   43      C      -4.4249353589    -2.8056942034    -3.3209755157
   44      H      -3.7256878637    -2.0474766078    -2.9861933277
   45      C      -5.7887876699    -2.5864551477    -3.2277565486
   46      C      -6.6880082770    -3.5866711008    -3.6579810765
   47      C      -6.2222184949    -4.7787786454    -4.1731257716
   48      H      -6.9202985779    -5.5415986489    -4.4998497444
   49      C      -4.8503101326    -5.0090254481    -4.2655973535
   50      C      -6.5837343843    -1.4623340636    -2.7201121888
   51      C      -6.3136688621    -0.2373312089    -2.1703620723
   52      H      -5.2999890435     0.1154122429    -2.0278016254
   53      C      -7.9331333610    -1.8403038821    -2.8632547802
   54      C      -9.0201900751    -1.0619489165    -2.4817872861
   55      C      -8.0514916649    -3.1216558048    -3.4280167092
   56      C      -9.3012732238    -3.6500338725    -3.6214902078
   57      H      -9.4478196560    -4.6344908786    -4.0492156264
   58      C      -7.3984496787     0.5832097347    -1.7768490915
   59      H      -7.1808579857     1.5505585428    -1.3438183884
   60      C      -8.7108415766     0.1987366918    -1.9199190260
   61      H      -9.5058922135     0.8610402871    -1.6002108639
   62      C     -10.3021124844    -1.6259335300    -2.6921142576
   63      H     -11.1899613898    -1.0708522000    -2.4151361904
   64      C     -10.4251277996    -2.8794530276    -3.2441621143
   65      H     -11.4131798201    -3.2943846026    -3.3951333733
   66      C      -1.8880430494    -5.6442306463    -4.4749243632
   67      C      -0.5146525632    -5.9066471166    -4.5488199789
   68      H       0.1927668799    -5.1493436487    -4.2297232941
   69      C      -0.0626942748    -7.1306532102    -5.0127339048
   70      C      -0.9936680525    -8.1102434825    -5.4218088080
   71      C      -2.3498108099    -7.8595935977    -5.3662590028
   72      H      -3.0597317302    -8.6174016858    -5.6790326793
   73      C      -2.8127796850    -6.6326767058    -4.8922665562
   74      C       1.2795491557    -7.7019874042    -5.1656199865
   75      C       2.5588127824    -7.2758578877    -4.9278387343
   76      H       2.7708087094    -6.2857032310    -4.5444100075
   77      C       1.0964201939    -9.0084113367    -5.6593840396
   78      C       2.1224435294    -9.9086114765    -5.9207085866
   79      C      -0.2661897865    -9.3044898512    -5.8349450117
   80      C      -0.6242861241   -10.5451623699    -6.2932870713
   81      H      -1.6603133541   -10.8252974755    -6.4405027391
   82      C       3.6280532365    -8.1662837488    -5.1889436526
   83      H       4.6376716403    -7.8274714865    -4.9981808267
   84      C       3.4332209754    -9.4405841088    -5.6677230343
   85      H       4.2844298197   -10.0857029509    -5.8468097023
   86      C       1.7308001652   -11.1843520522    -6.3955144440
   87      H       2.4811559154   -11.9329740971    -6.6179673884
   88      C       0.3991467000   -11.4798129084    -6.5721971690
   89      H       0.1207149621   -12.4614562565    -6.9327709384
   90      B      -4.3389799814    -6.3673411834    -4.8142831735
   91      C      -5.3671462289    -7.4643393014    -5.2865615924
   92      C      -5.9037915491    -7.4067233114    -6.5803946405
   93      C      -6.8201138520    -8.3649945378    -6.9935038329
   94      H      -7.2426958737    -8.3220770919    -7.9917239364
   95      C      -7.1940390239    -9.3937949653    -6.1451296846
   96      C      -6.6627448813    -9.4615159825    -4.8696983515
   97      H      -6.9668994413   -10.2703487662    -4.2145611280
   98      C      -5.7591000654    -8.5007543802    -4.4289750574
   99      N      -8.1279553270   -10.3710231488    -6.5747448425
  100      C      -9.4885456827   -10.1642655418    -6.3554581857
  101      C     -10.3990714018   -11.1165415658    -6.8224818058
  102      C     -11.7553044772   -10.9582553950    -6.6328430906
  103      H     -12.4262871133   -11.7179826028    -7.0125893388
  104      C     -12.2414808434    -9.8471647561    -5.9545436584
  105      H     -13.3056492076    -9.7333161336    -5.8008682294
  106      C     -11.3533017314    -8.8993909891    -5.4848491517
  107      H     -11.7134785507    -8.0278674581    -4.9550376773
  108      C      -9.9868490086    -9.0527858041    -5.6881858552
  109      H      -9.3024958438    -8.3021376863    -5.3176942975
  110      C      -7.7305737911   -11.3888623948    -7.4404460414
  111      C      -8.6868342115   -12.3079697675    -7.8838624459
  112      C      -8.3481851397   -13.3292313151    -8.7455924643
  113      H      -9.1203794501   -14.0156310631    -9.0683856831
  114      C      -7.0346127353   -13.4741737942    -9.1753936495
  115      H      -6.7734872026   -14.2808071329    -9.8463432732
  116      C      -6.0766224630   -12.5816907989    -8.7353877311
  117      H      -5.0486006810   -12.6804176725    -9.0568564945
  118      C      -6.4211374443   -11.5450991350    -7.8760528848
  119      H      -5.6606652668   -10.8541529938    -7.5398055514
  120      C      -5.2728675530    -8.5711102695    -3.0054931579
  121      H      -5.0909627440    -9.6140130940    -2.7331921216
  122      H      -4.3085680374    -8.0663013403    -2.9009599981
  123      C      -6.2797244381    -7.9617288077    -2.0322163011
  124      C      -5.4604820226    -6.3642809349    -7.5730894585
  125      H      -6.3176724866    -6.0353292788    -8.1662103330
  126      H      -5.0949662248    -5.4705791495    -7.0601889390
  127      C      -4.3760815545    -6.9018850023    -8.5049379425
  128      H      -3.4910469373    -7.2028139837    -7.9439879333
  129      H      -4.7325972240    -7.7732814777    -9.0556485780
  130      H      -4.0703043623    -6.1482954450    -9.2309677420
  131      H      -6.4563668667    -6.9094530281    -2.2563359646
  132      H      -5.9224563434    -8.0278928093    -1.0043742752
  133      H      -7.2388266155    -8.4783064579    -2.0868011628
  134      H       0.2652447346    -2.3205625917    -6.6906997868
  135      H      -1.1662201927    -2.6063115583    -7.6792229983
  136      H      -0.6877806130    -3.7838112101    -6.4624052593
  137      O      -9.9811104755   -12.2444553951    -7.4623285263
  138      O       3.1634691500     1.6352639469    -1.2256004282
 ----------------------------------------------------------------

    8   -3232.5284801604      5.61e-09  Convergence criterion met
 Total energy in the final basis set =    -3232.5284801604
 Final energy is   -3232.52848016040
 **  OPTIMIZATION CONVERGED  **

                    Orbital Energies (a.u.)
 --------------------------------------------------------------

 Alpha MOs
 -- Occupied --
-19.543 -19.543 -14.680 -14.679 -10.510 -10.510 -10.510 -10.509
-10.497 -10.497 -10.496 -10.496 -10.490 -10.489 -10.471 -10.471
-10.471 -10.471 -10.471 -10.470 -10.470 -10.470 -10.469 -10.469
-10.468 -10.468 -10.468 -10.468 -10.468 -10.467 -10.466 -10.465
-10.465 -10.465 -10.465 -10.465 -10.463 -10.463 -10.461 -10.461
-10.461 -10.461 -10.460 -10.460 -10.452 -10.452 -10.449 -10.449
-10.449 -10.448 -10.445 -10.445 -10.444 -10.444 -10.444 -10.444
-10.444 -10.444 -10.444 -10.444 -10.443 -10.443 -10.443 -10.443
-10.443 -10.443 -10.443 -10.442 -10.441 -10.441 -10.441 -10.441
-10.441 -10.441 -10.437 -10.437 -10.428 -10.428 -10.427 -10.427
 -6.960  -6.958  -1.211  -1.211  -1.087  -1.086  -1.022  -1.022
 -0.973  -0.972  -0.971  -0.970  -0.967  -0.966  -0.939  -0.939
 -0.939  -0.938  -0.916  -0.908  -0.900  -0.898  -0.878  -0.876
 -0.862  -0.862  -0.862  -0.861  -0.853  -0.853  -0.853  -0.853
 -0.833  -0.831  -0.827  -0.824  -0.824  -0.820  -0.819  -0.812
 -0.811  -0.810  -0.791  -0.790  -0.742  -0.740  -0.733  -0.731
 -0.731  -0.730  -0.728  -0.727  -0.723  -0.721  -0.710  -0.710
 -0.695  -0.687  -0.686  -0.679  -0.679  -0.673  -0.664  -0.656
 -0.655  -0.654  -0.648  -0.648  -0.641  -0.641  -0.638  -0.637
 -0.602  -0.602  -0.599  -0.595  -0.593  -0.592  -0.590  -0.582
 -0.581  -0.567  -0.566  -0.565  -0.565  -0.564  -0.561  -0.550
 -0.543  -0.538  -0.537  -0.536  -0.535  -0.535  -0.534  -0.530
 -0.526  -0.526  -0.521  -0.516  -0.510  -0.509  -0.508  -0.506
 -0.504  -0.499  -0.498  -0.498  -0.498  -0.497  -0.496  -0.495
 -0.495  -0.494  -0.493  -0.491  -0.491  -0.490  -0.485  -0.484
 -0.484  -0.481  -0.479  -0.474  -0.470  -0.465  -0.462  -0.461
 -0.451  -0.451  -0.450  -0.447  -0.444  -0.443  -0.442  -0.441
 -0.439  -0.436  -0.435  -0.433  -0.432  -0.432  -0.431  -0.428
 -0.427  -0.426  -0.416  -0.416  -0.416  -0.414  -0.413  -0.411
 -0.405  -0.403  -0.401  -0.401  -0.401  -0.400  -0.399  -0.399
 -0.398  -0.397  -0.395  -0.392  -0.389  -0.387  -0.386  -0.381
 -0.381  -0.375  -0.370  -0.367  -0.365  -0.357  -0.356  -0.349
 -0.325  -0.320  -0.304  -0.303  -0.301  -0.300  -0.300  -0.299
 -0.291  -0.286  -0.285  -0.284  -0.284  -0.271  -0.270  -0.268
 -0.264  -0.262  -0.212  -0.211

          Ground-State Mulliken Net Atomic Charges

     Atom                 Charge (a.u.)
  ----------------------------------------
      1 N                    -0.712455
      2 C                     0.334641
      3 C                     0.345323
      4 C                    -0.341477
      5 H                     0.235627
      6 C                    -0.236114
      7 H                     0.217242
      8 C                    -0.221521
      9 H                     0.212536
     10 C                    -0.325107
     11 H                     0.244954
     12 C                     0.336693
     13 C                    -0.326859
     14 H                     0.246268
     15 C                    -0.222075
     16 H                     0.213851
     17 C                    -0.236428
     18 H                     0.217328
     19 C                    -0.341375
     20 H                     0.235763
     21 C                     0.342818
     22 C                     0.221903
     23 C                    -0.306232
     24 H                     0.225239
     25 C                     0.062982
     26 C                    -0.301199
     27 H                     0.227984
     28 C                     0.066655
     29 C                    -0.213697
     30 C                    -0.553765
     31 H                     0.255175
     32 H                     0.235666
     33 C                    -0.646721
     34 C                    -0.554627
     35 H                     0.235719
     36 H                     0.256837
     37 C                    -0.645658
     38 H                     0.242263
     39 H                     0.222235
     40 H                     0.219323
     41 B                     0.669568
     42 C                    -0.150063
     43 C                    -0.393974
     44 H                     0.231594
     45 C                     0.113005
     46 C                     0.085920
     47 C                    -0.383898
     48 H                     0.230977
     49 C                    -0.151920
     50 C                     0.198706
     51 C                    -0.384984
     52 H                     0.217669
     53 C                    -0.063161
     54 C                     0.251867
     55 C                     0.198238
     56 C                    -0.375190
     57 H                     0.216848
     58 C                    -0.202584
     59 H                     0.228501
     60 C                    -0.335593
     61 H                     0.223047
     62 C                    -0.330803
     63 H                     0.222734
     64 C                    -0.205596
     65 H                     0.228782
     66 C                    -0.151890
     67 C                    -0.393448
     68 H                     0.230934
     69 C                     0.114118
     70 C                     0.085803
     71 C                    -0.385413
     72 H                     0.230595
     73 C                    -0.150289
     74 C                     0.197842
     75 C                    -0.384979
     76 H                     0.219018
     77 C                    -0.062553
     78 C                     0.252526
     79 C                     0.197209
     80 C                    -0.375998
     81 H                     0.218547
     82 C                    -0.203055
     83 H                     0.228963
     84 C                    -0.335936
     85 H                     0.223007
     86 C                    -0.331248
     87 H                     0.222653
     88 C                    -0.206152
     89 H                     0.229377
     90 B                     0.668893
     91 C                    -0.225630
     92 C                     0.066210
     93 C                    -0.298023
     94 H                     0.228848
     95 C                     0.224691
     96 C                    -0.306169
     97 H                     0.225808
     98 C                     0.064947
     99 N                    -0.711696
    100 C                     0.334362
    101 C                     0.344163
    102 C                    -0.341286
    103 H                     0.235940
    104 C                    -0.236062
    105 H                     0.217510
    106 C                    -0.221231
    107 H                     0.211822
    108 C                    -0.323448
    109 H                     0.244073
    110 C                     0.336281
    111 C                     0.341580
    112 C                    -0.340903
    113 H                     0.236012
    114 C                    -0.236788
    115 H                     0.217722
    116 C                    -0.221474
    117 H                     0.214318
    118 C                    -0.327944
    119 H                     0.245680
    120 C                    -0.551976
    121 H                     0.236162
    122 H                     0.254862
    123 C                    -0.643872
    124 C                    -0.554288
    125 H                     0.237085
    126 H                     0.256841
    127 C                    -0.643605
    128 H                     0.238463
    129 H                     0.218647
    130 H                     0.223300
    131 H                     0.238270
    132 H                     0.223239
    133 H                     0.218947
    134 H                     0.218924
    135 H                     0.222629
    136 H                     0.242567
    137 O                    -0.491387
    138 O                    -0.492047
  ----------------------------------------
  Sum of atomic charges =    -0.000000

                    Cartesian Multipole Moments
 -----------------------------------------------------------------
    Charge (ESU x 10^10)
                -0.0000
    Dipole Moment (Debye)
         X      -0.1557      Y      -0.1173      Z      -0.1176
       Tot       0.2277
    Quadrupole Moments (Debye-Ang)
        XX    -440.2752     XY     -44.8359     YY    -460.2424
        XZ     -21.3121     YZ      10.6182     ZZ    -474.9037

 Total job time:  54880.16s(wall), 413896.43s(cpu)
        *  Thank you very much for using Q-Chem.  Have a nice day.  *
