 Q-Chem 5.1, Q-Chem, Inc., Pleasanton, CA (2018)
 Q-Chem 5.1.1 for Intel X86 EM64T Linux

User input:
--------------------------------------------------------------
$rem
threads 8
jobtype	sp
method PBEh-3c
basis def2-mSVP
mem_static	1024
mem_total	10000
sym_ignore	true
cis_n_roots             6
cis_singlets            true
cis_triplets		true
rpa                     false
calc_soc 		true
cis_moments             true
cis_relaxed_density	true
$end

$molecule
read gsopt.mol
$end

--------------------------------------------------------------

             Standard Nuclear Orientation (Angstroms)
    I     Atom           X                Y                Z
 ----------------------------------------------------------------
    1      N       0.0000000000     0.0000000000     0.0000000000
    2      C       0.0000000000     0.0000000000     1.3935710000
    3      C       1.1648103771     0.0000000000     2.1499854192
    4      H       2.1242770172     0.0030693101     1.6514977478
    5      C       1.1103159462    -0.0120245763     3.5388537307
    6      H       2.0330612277    -0.0197413569     4.1031794012
    7      C      -0.1069840317    -0.0126714581     4.1914866265
    8      H      -0.1564405547    -0.0207346876     5.2715428288
    9      C      -1.2791515277    -0.0021165336     3.4452348075
   10      H      -2.2480060179    -0.0024892576     3.9278653557
   11      C      -1.2245134743    -0.0037245991     2.0677739499
   12      O      -2.4070815557    -0.0303847631     1.3916781020
   13      C      -2.3930656887     0.2199930353     0.0522791722
   14      C      -3.6049312117     0.4436027124    -0.5654732893
   15      H      -4.5049457725     0.4364563939     0.0358145931
   16      C      -3.6606818862     0.6598392063    -1.9370942804
   17      H      -4.6146160979     0.8284658171    -2.4172940436
   18      C      -2.4903909483     0.6545095539    -2.6707611942
   19      H      -2.5143921764     0.8180394362    -3.7396853664
   20      C      -1.2677114085     0.4409037271    -2.0453841736
   21      H      -0.3598819526     0.4393702641    -2.6324354374
   22      C      -1.1986862358     0.2249140914    -0.6752120444
   23      C       1.2331363682     0.0469532077    -0.6992247015
   24      C       1.8849177270    -1.1282640925    -1.0272958013
   25      H       1.4366783287    -2.0751446232    -0.7472525345
   26      C       1.7935157131     1.2652693231    -1.0451587850
   27      H       1.2733513165     2.1805355345    -0.7832862377
   28      C       2.9989922008     1.3183722429    -1.7326156728
   29      C       3.1029132622    -1.0970834005    -1.6976603943
   30      C       3.6692066892     0.1318017911    -2.0615162405
   31      C       3.8128248431    -2.3991921839    -1.9588305041
   32      H       3.0838293109    -3.1605387315    -2.2483125624
   33      H       4.4939452012    -2.3044181542    -2.8089633428
   34      C       3.5174551564     2.6641728269    -2.1669777960
   35      H       3.3437143239     3.3967909742    -1.3745998869
   36      H       4.6009206131     2.6347634782    -2.3105409171
   37      C       4.5860542818    -2.8787415803    -0.7322409028
   38      H       5.0867493489    -3.8269056341    -0.9291331237
   39      H       5.3468538757    -2.1549554409    -0.4389243119
   40      H       3.9194189974    -3.0230075263     0.1189313002
   41      C       2.8412916543     3.1380164862    -3.4521076922
   42      H       3.0296722962     2.4453004521    -4.2725753060
   43      H       3.2091069521     4.1191586432    -3.7530867461
   44      H       1.7610211743     3.2106385934    -3.3199720419
   45      B       5.0446063422     0.1945001508    -2.8282770495
   46      C       5.0950143704     0.0322156159    -4.3699950437
   47      C       3.9148591053    -0.1900736384    -5.0786244708
   48      H       2.9711437287    -0.2451080374    -4.5471541542
   49      C       3.9533548200    -0.3535282956    -6.4486009333
   50      C       5.1782423380    -0.2873890103    -7.1478340648
   51      C       6.3534274252    -0.0584994844    -6.4519724367
   52      H       7.2991702061    -0.0090397553    -6.9800804231
   53      C       6.3301039528     0.0959408171    -5.0605243264
   54      C       2.8844175688    -0.6298123860    -7.4010565419
   55      C       1.5305063171    -0.8189565230    -7.3076306387
   56      H       1.0072453516    -0.7614653460    -6.3608505069
   57      C       3.5020461029    -0.7253477873    -8.6598652260
   58      C       2.8183824492    -1.0082154288    -9.8362853866
   59      C       4.8929535530    -0.5232062575    -8.5671355235
   60      C       5.6342464274    -0.6033450204    -9.7154845871
   61      H       6.7078575534    -0.4628952631    -9.7152239678
   62      C       0.8084775199    -1.1033373170    -8.4893999462
   63      H      -0.2607747875    -1.2551124812    -8.4199379329
   64      C       1.4197202499    -1.1981333721    -9.7178998324
   65      H       0.8275378431    -1.4222114821   -10.5965709759
   66      C       3.6092731585    -1.0829942502   -11.0067935530
   67      H       3.1470923943    -1.3003707502   -11.9617506682
   68      C       4.9679835452    -0.8844104702   -10.9326141130
   69      H       5.5566325259    -0.9491186016   -11.8380528667
   70      C       6.3626676823     0.4197409180    -2.0411824313
   71      C       6.3207957455     0.5421307034    -0.6530313126
   72      H       5.3686568754     0.4959701114    -0.1360604886
   73      C       7.4898762193     0.7117512019     0.0596629908
   74      C       8.7358643622     0.7717457271    -0.6021803733
   75      C       8.7851664064     0.6559453308    -1.9809508885
   76      H       9.7373903933     0.6927697048    -2.4984762180
   77      C       7.6064130903     0.4773765520    -2.7154076178
   78      C       7.7158565485     0.8297287139     1.4960561910
   79      C       6.9137824980     0.8191753735     2.6074224112
   80      H       5.8377076443     0.7157209325     2.5371362557
   81      C       9.1053153846     0.9621179388     1.6594758273
   82      C       9.7284135410     1.0847129233     2.8963123051
   83      C       9.7752125981     0.9358770983     0.4206149192
   84      C      11.1405507938     1.0436909886     0.4251952504
   85      H      11.7193006112     1.0274196458    -0.4897264122
   86      C       7.5206748256     0.9439370106     3.8783814603
   87      H       6.8899021223     0.9352447981     4.7577317113
   88      C       8.8812325092     1.0733674434     4.0311242057
   89      H       9.3046919003     1.1638486999     5.0238996398
   90      C      11.1381669986     1.1970020171     2.8697403023
   91      H      11.6928579593     1.2970917664     3.7945455744
   92      C      11.8059774541     1.1764350732     1.6679637230
   93      H      12.8845236055     1.2622374471     1.6671826033
   94      B       7.6518367470     0.3166495490    -4.2638577967
   95      C       9.0331560119     0.3596252357    -5.0172597552
   96      C       9.6665672043    -0.8322090119    -5.3956912976
   97      C      10.8839800710    -0.7861786369    -6.0661553924
   98      H      11.3776076429    -1.7035472785    -6.3662824746
   99      C      11.4811227693     0.4279738590    -6.3582169336
  100      C      10.8636365130     1.6088928023    -5.9767573542
  101      H      11.3389268058     2.5555588947    -6.2099093834
  102      C       9.6440016857     1.5872224579    -5.3113285813
  103      N      12.7191812746     0.4565055616    -7.0493464118
  104      C      12.7455346842     0.7092965565    -8.4192097193
  105      C      11.5950234234     0.9104032263    -9.1706071955
  106      H      10.6281691226     0.8760164830    -8.6872824450
  107      C      11.6737437196     1.1532372574   -10.5363489117
  108      H      10.7619455322     1.3039713903   -11.0985009860
  109      C      12.9012803504     1.2042737640   -11.1674249851
  110      H      12.9696268310     1.3956026514   -12.2292891211
  111      C      14.0592908563     1.0067971068   -10.4241694497
  112      H      15.0344970909     1.0375898273   -10.8923584373
  113      C      13.9809248988     0.7544027152    -9.0714315531
  114      O      15.1460584468     0.5272532712    -8.4011607285
  115      C      15.1219144840     0.5246324274    -7.0387571669
  116      C      16.3289947428     0.5481106644    -6.3733638808
  117      H      17.2425914269     0.5881114089    -6.9519908249
  118      C      16.3624087080     0.5080111943    -4.9838979337
  119      H      17.3126311611     0.5183967032    -4.4682659172
  120      C      15.1767327614     0.4551460450    -4.2772307093
  121      H      15.1848683203     0.4221454385    -3.1960278098
  122      C      13.9595300229     0.4444312933    -4.9469686224
  123      H      13.0372589879     0.4044383531    -4.3836123661
  124      C      13.9150942945     0.4766925267    -6.3346696025
  125      C       9.0809415683    -2.1731360663    -5.0343842636
  126      H       9.3336267945    -2.9030522842    -5.8074158118
  127      H       7.9889251105    -2.1221341936    -5.0210607569
  128      C       8.9717337208     2.8934658293    -4.9727896163
  129      H       9.7319503374     3.6559697712    -4.7863700493
  130      H       8.4080869092     2.8045091968    -4.0398184207
  131      C       9.5805193912    -2.6753330946    -3.6813910900
  132      H       9.3178456285    -1.9841024887    -2.8805364561
  133      H       9.1427053909    -3.6441079706    -3.4395273316
  134      H      10.6651191110    -2.7884029359    -3.6796280673
  135      C       8.0393291417     3.3740103224    -6.0834236374
  136      H       7.2381642617     2.6584864660    -6.2691015191
  137      H       7.5769144721     4.3253682027    -5.8187582805
  138      H       8.5825210512     3.5144811546    -7.0183998264
 ----------------------------------------------------------------

   15   -3232.5281794509      7.10e-09  Convergence criterion met
 Total energy in the final basis set =    -3232.5281794509

         TDDFT/TDA Excitation Energies
 ---------------------------------------------------

 Excited state   1: excitation energy (eV) =    2.3282
 Total energy for state  1:                 -3232.44261807 au
    Multiplicity: Triplet
    Trans. Mom.:  0.0000 X   0.0000 Y   0.0000 Z
    Strength   :     0.0000000000
    D(273) --> V(  1) amplitude =  0.8680
    D(274) --> V(  1) amplitude = -0.2777

 Excited state   2: excitation energy (eV) =    2.3626
 Total energy for state  2:                 -3232.44135712 au
    Multiplicity: Triplet
    Trans. Mom.:  0.0000 X   0.0000 Y   0.0000 Z
    Strength   :     0.0000000000
    D(276) --> V(  1) amplitude =  0.9979

 Excited state   3: excitation energy (eV) =    2.3630
 Total energy for state  3:                 -3232.44133971 au
    Multiplicity: Singlet
    Trans. Mom.: -0.0370 X  -0.0037 Y   0.0199 Z
    Strength   :     0.0001028893
    D(276) --> V(  1) amplitude =  0.9980

 Excited state   4: excitation energy (eV) =    2.3798
 Total energy for state  4:                 -3232.44072444 au
    Multiplicity: Triplet
    Trans. Mom.:  0.0000 X   0.0000 Y   0.0000 Z
    Strength   :     0.0000000000
    D(275) --> V(  1) amplitude =  0.9978

 Excited state   5: excitation energy (eV) =    2.3803
 Total energy for state  5:                 -3232.44070511 au
    Multiplicity: Singlet
    Trans. Mom.:  0.0332 X  -0.0014 Y  -0.0198 Z
    Strength   :     0.0000873437
    D(275) --> V(  1) amplitude =  0.9980

 Excited state   6: excitation energy (eV) =    2.4841
 Total energy for state  6:                 -3232.43689180 au
    Multiplicity: Triplet
    Trans. Mom.:  0.0000 X   0.0000 Y   0.0000 Z
    Strength   :     0.0000000000
    D(272) --> V(  2) amplitude =  0.4928
    D(273) --> V(  1) amplitude =  0.2544
    D(274) --> V(  1) amplitude =  0.7440
    D(274) --> V(  4) amplitude =  0.2221

 Excited state   7: excitation energy (eV) =    2.5336
 Total energy for state  7:                 -3232.43507208 au
    Multiplicity: Triplet
    Trans. Mom.:  0.0000 X   0.0000 Y   0.0000 Z
    Strength   :     0.0000000000
    D(272) --> V(  1) amplitude =  0.7233
    D(272) --> V(  4) amplitude =  0.2522
    D(274) --> V(  2) amplitude =  0.5522

 Excited state   8: excitation energy (eV) =    2.7632
 Total energy for state  8:                 -3232.42663429 au
    Multiplicity: Triplet
    Trans. Mom.:  0.0000 X   0.0000 Y   0.0000 Z
    Strength   :     0.0000000000
    D(265) --> V(  1) amplitude =  0.2774
    D(266) --> V(  1) amplitude = -0.3187
    D(267) --> V(  1) amplitude = -0.5554
    D(273) --> V(  2) amplitude =  0.5536

 Excited state   9: excitation energy (eV) =    2.9944
 Total energy for state  9:                 -3232.41813675 au
    Multiplicity: Singlet
    Trans. Mom.:  0.0766 X   0.0278 Y   0.1355 Z
    Strength   :     0.0018335005
    D(273) --> V(  1) amplitude =  0.9303
    D(274) --> V(  1) amplitude = -0.2554

 Excited state  10: excitation energy (eV) =    3.2704
 Total energy for state 10:                 -3232.40799290 au
    Multiplicity: Singlet
    Trans. Mom.: -1.5614 X  -0.4907 Y  -2.8884 Z
    Strength   :     0.8831105137
    D(273) --> V(  1) amplitude =  0.2510
    D(274) --> V(  1) amplitude =  0.9144

 Excited state  11: excitation energy (eV) =    3.3814
 Total energy for state 11:                 -3232.40391513 au
    Multiplicity: Singlet
    Trans. Mom.: -0.0005 X  -0.0018 Y  -0.0048 Z
    Strength   :     0.0000021977
    D(276) --> V(  2) amplitude =  0.9987

 Excited state  12: excitation energy (eV) =    3.3936
 Total energy for state 12:                 -3232.40346645 au
    Multiplicity: Singlet
    Trans. Mom.: -0.0058 X  -0.0024 Y  -0.0017 Z
    Strength   :     0.0000035017
    D(275) --> V(  2) amplitude =  0.9984

 ---------------------------------------------------

                    Orbital Energies (a.u.)
 --------------------------------------------------------------

 Alpha MOs
 -- Occupied --
-19.543 -19.543 -14.680 -14.679 -10.510 -10.510 -10.510 -10.509
-10.497 -10.497 -10.496 -10.496 -10.490 -10.489 -10.471 -10.471
-10.471 -10.471 -10.471 -10.470 -10.470 -10.470 -10.469 -10.469
-10.468 -10.468 -10.468 -10.468 -10.468 -10.467 -10.466 -10.465
-10.465 -10.465 -10.465 -10.465 -10.463 -10.463 -10.461 -10.461
-10.461 -10.461 -10.460 -10.460 -10.452 -10.452 -10.449 -10.449
-10.449 -10.448 -10.445 -10.445 -10.445 -10.444 -10.444 -10.444
-10.444 -10.444 -10.444 -10.444 -10.443 -10.443 -10.443 -10.443
-10.443 -10.443 -10.443 -10.442 -10.441 -10.441 -10.441 -10.441
-10.441 -10.441 -10.437 -10.437 -10.428 -10.428 -10.427 -10.427
 -6.960  -6.958  -1.211  -1.211  -1.087  -1.086  -1.022  -1.022
 -0.973  -0.972  -0.971  -0.970  -0.967  -0.966  -0.939  -0.939
 -0.939  -0.938  -0.916  -0.908  -0.900  -0.898  -0.878  -0.876
 -0.862  -0.862  -0.862  -0.861  -0.854  -0.853  -0.853  -0.853
 -0.833  -0.831  -0.827  -0.824  -0.824  -0.820  -0.819  -0.812
 -0.811  -0.810  -0.791  -0.790  -0.742  -0.740  -0.733  -0.731
 -0.731  -0.730  -0.728  -0.727  -0.723  -0.721  -0.710  -0.710
 -0.695  -0.687  -0.686  -0.679  -0.679  -0.673  -0.664  -0.656
 -0.655  -0.654  -0.648  -0.648  -0.641  -0.641  -0.638  -0.637
 -0.602  -0.602  -0.599  -0.595  -0.593  -0.592  -0.590  -0.582
 -0.581  -0.567  -0.566  -0.565  -0.565  -0.564  -0.561  -0.550
 -0.543  -0.538  -0.537  -0.536  -0.535  -0.535  -0.534  -0.530
 -0.526  -0.526  -0.521  -0.516  -0.510  -0.509  -0.508  -0.506
 -0.504  -0.499  -0.498  -0.498  -0.498  -0.497  -0.496  -0.495
 -0.495  -0.494  -0.493  -0.491  -0.491  -0.490  -0.485  -0.484
 -0.484  -0.481  -0.479  -0.474  -0.470  -0.465  -0.462  -0.461
 -0.451  -0.451  -0.450  -0.447  -0.444  -0.443  -0.442  -0.441
 -0.439  -0.436  -0.435  -0.433  -0.432  -0.432  -0.431  -0.428
 -0.427  -0.426  -0.416  -0.416  -0.416  -0.414  -0.413  -0.411
 -0.405  -0.403  -0.401  -0.401  -0.401  -0.400  -0.399  -0.399
 -0.398  -0.397  -0.395  -0.392  -0.389  -0.387  -0.386  -0.381
 -0.381  -0.375  -0.370  -0.367  -0.365  -0.357  -0.356  -0.349
 -0.325  -0.320  -0.304  -0.303  -0.301  -0.300  -0.300  -0.299
 -0.291  -0.286  -0.285  -0.284  -0.284  -0.271  -0.270  -0.268
 -0.264  -0.262  -0.212  -0.211

          Ground-State Mulliken Net Atomic Charges

     Atom                 Charge (a.u.)
  ----------------------------------------
      1 N                    -0.711630
      2 C                     0.334479
      3 C                    -0.323434
      4 H                     0.244047
      5 C                    -0.221169
      6 H                     0.211846
      7 C                    -0.236074
      8 H                     0.217472
      9 C                    -0.341475
     10 H                     0.235935
     11 C                     0.344241
     12 O                    -0.491429
     13 C                     0.341590
     14 C                    -0.341029
     15 H                     0.236014
     16 C                    -0.236748
     17 H                     0.217737
     18 C                    -0.221456
     19 H                     0.214327
     20 C                    -0.327631
     21 H                     0.245677
     22 C                     0.335823
     23 C                     0.224785
     24 C                    -0.306572
     25 H                     0.225936
     26 C                    -0.297852
     27 H                     0.228869
     28 C                     0.066052
     29 C                     0.065522
     30 C                    -0.225856
     31 C                    -0.551731
     32 H                     0.236150
     33 H                     0.254763
     34 C                    -0.553948
     35 H                     0.237029
     36 H                     0.256696
     37 C                    -0.643709
     38 H                     0.223181
     39 H                     0.238242
     40 H                     0.218880
     41 C                    -0.643728
     42 H                     0.238480
     43 H                     0.223321
     44 H                     0.218642
     45 B                     0.669038
     46 C                    -0.150699
     47 C                    -0.385283
     48 H                     0.230669
     49 C                     0.085695
     50 C                     0.114015
     51 C                    -0.393875
     52 H                     0.231016
     53 C                    -0.152220
     54 C                     0.197339
     55 C                    -0.376111
     56 H                     0.218578
     57 C                    -0.062485
     58 C                     0.252575
     59 C                     0.197965
     60 C                    -0.384950
     61 H                     0.219008
     62 C                    -0.206088
     63 H                     0.229374
     64 C                    -0.331286
     65 H                     0.222658
     66 C                    -0.335970
     67 H                     0.223008
     68 C                    -0.203116
     69 H                     0.228996
     70 C                    -0.151986
     71 C                    -0.384142
     72 H                     0.231036
     73 C                     0.085850
     74 C                     0.113170
     75 C                    -0.393886
     76 H                     0.231596
     77 C                    -0.150646
     78 C                     0.197969
     79 C                    -0.375187
     80 H                     0.216837
     81 C                    -0.063267
     82 C                     0.251873
     83 C                     0.199232
     84 C                    -0.385054
     85 H                     0.217696
     86 C                    -0.205582
     87 H                     0.228801
     88 C                    -0.330670
     89 H                     0.222670
     90 C                    -0.335750
     91 H                     0.223080
     92 C                    -0.202591
     93 H                     0.228464
     94 B                     0.671013
     95 C                    -0.214667
     96 C                     0.063017
     97 C                    -0.306220
     98 H                     0.225176
     99 C                     0.222130
    100 C                    -0.301444
    101 H                     0.227944
    102 C                     0.066925
    103 N                    -0.712259
    104 C                     0.336692
    105 C                    -0.326835
    106 H                     0.246240
    107 C                    -0.222075
    108 H                     0.213819
    109 C                    -0.236438
    110 H                     0.217327
    111 C                    -0.341210
    112 H                     0.235686
    113 C                     0.342885
    114 O                    -0.492045
    115 C                     0.345224
    116 C                    -0.341536
    117 H                     0.235679
    118 C                    -0.236040
    119 H                     0.217257
    120 C                    -0.221577
    121 H                     0.212504
    122 C                    -0.325091
    123 H                     0.244997
    124 C                     0.334424
    125 C                    -0.554511
    126 H                     0.235749
    127 H                     0.256776
    128 C                    -0.553251
    129 H                     0.235579
    130 H                     0.255002
    131 C                    -0.645558
    132 H                     0.242247
    133 H                     0.222221
    134 H                     0.219293
    135 C                    -0.646613
    136 H                     0.242486
    137 H                     0.222563
    138 H                     0.218893
  ----------------------------------------
  Sum of atomic charges =    -0.000000

                    Cartesian Multipole Moments
 -----------------------------------------------------------------
    Charge (ESU x 10^10)
                -0.0000
    Dipole Moment (Debye)
         X      -0.1886      Y       0.0549      Z       0.1177
       Tot       0.2290
    Quadrupole Moments (Debye-Ang)
        XX    -479.2046     XY       3.6548     YY    -479.9394
        XZ      44.9471     YZ       6.4275     ZZ    -422.8030

 Total job time:  21247.75s(wall), 79575.60s(cpu)
        *  Thank you very much for using Q-Chem.  Have a nice day.  *
