 Q-Chem 5.1, Q-Chem, Inc., Pleasanton, CA (2018)
 Q-Chem 5.1.1 for Intel X86 EM64T Linux

User input:
--------------------------------------------------------------
$rem
threads 8
jobtype	opt
method PBEh-3c
basis def2-mSVP
mem_static	1024
mem_total	10000
sym_ignore	true
cis_n_roots             2
cis_singlets            true
cis_triplets		false
rpa                     false
cis_state_deriv         1
$end

$molecule
read incoords.mol
$end

--------------------------------------------------------------

   15   -3232.4657353730      7.44e-09  Convergence criterion met
 Total energy in the final basis set =    -3232.4657353730
   12   -3232.5032527311      6.16e-09  Convergence criterion met
 Total energy in the final basis set =    -3232.5032527311
   12   -3232.5129254031      7.66e-09  Convergence criterion met
 Total energy in the final basis set =    -3232.5129254031
   12   -3232.5154311494      6.00e-09  Convergence criterion met
 Total energy in the final basis set =    -3232.5154311494
   12   -3232.5153219713      5.18e-09  Convergence criterion met
 Total energy in the final basis set =    -3232.5153219713
   12   -3232.5157250262      4.58e-09  Convergence criterion met
 Total energy in the final basis set =    -3232.5157250262
   11   -3232.5170437585      8.07e-09  Convergence criterion met
 Total energy in the final basis set =    -3232.5170437585
   11   -3232.5181327349      7.16e-09  Convergence criterion met
   11   -3232.5204063882      5.38e-09  Convergence criterion met
 Total energy in the final basis set =    -3232.5204063882
   10   -3232.5207011778      6.09e-09  Convergence criterion met
 Total energy in the final basis set =    -3232.5207011778
   10   -3232.5208871489      6.70e-09  Convergence criterion met
 Total energy in the final basis set =    -3232.5208871489
   10   -3232.5208406380      5.03e-09  Convergence criterion met
 Total energy in the final basis set =    -3232.5208406380
    9   -3232.5208155550      5.23e-09  Convergence criterion met
 Total energy in the final basis set =    -3232.5208155550
    8   -3232.5208399360      9.56e-09  Convergence criterion met
 Total energy in the final basis set =    -3232.5208399360

             Standard Nuclear Orientation (Angstroms)
    I     Atom           X                Y                Z
 ----------------------------------------------------------------
    1      N       1.3490805997    -0.2220505776    -2.1491496164
    2      C       0.9132995851     0.8714014558    -1.4546051192
    3      C       1.8562102890     1.8242285084    -1.0188331063
    4      C       1.4671846063     2.9496219743    -0.3118785315
    5      H       2.2151560934     3.6616664500     0.0076902859
    6      C       0.1298318485     3.1330022494    -0.0335979895
    7      H      -0.1863443929     4.0069672135     0.5169481535
    8      C      -0.8193814402     2.1953756958    -0.4591296126
    9      H      -1.8644095773     2.3501829857    -0.2344768959
   10      C      -0.4418374207     1.0775066135    -1.1601012666
   11      H      -1.1744446219     0.3551213936    -1.4871984265
   12      C       2.6788707432    -0.3834753604    -2.4224590006
   13      C       3.1684219853    -1.4847041479    -3.1383771863
   14      H       2.4811047901    -2.2384206080    -3.4920345252
   15      C       4.5151820938    -1.5893991098    -3.3817771748
   16      H       4.8872092142    -2.4391919510    -3.9348251099
   17      C       5.4076270717    -0.6121927861    -2.9240576096
   18      H       6.4643044144    -0.7111744636    -3.1251218944
   19      C       4.9473319158     0.4779243430    -2.2179413169
   20      H       5.6192133295     1.2435560328    -1.8559180305
   21      C       3.5899370391     0.5912297074    -1.9696212106
   22      C       0.4030238780    -1.2122517399    -2.5974601086
   23      C       0.0870935396    -2.2658315203    -1.7627167347
   24      H       0.5363849748    -2.3419584180    -0.7786500293
   25      C      -0.8138331235    -3.2324625371    -2.1990876480
   26      C      -0.1562431061    -1.0879768859    -3.8536167925
   27      H       0.1056974028    -0.2510061952    -4.4917432610
   28      C      -1.0587767176    -2.0507098742    -4.2957085158
   29      C      -1.3945739749    -3.1379946822    -3.4740504810
   30      C      -1.6246993028    -1.9206094868    -5.6856413072
   31      H      -2.6535068621    -2.2826520497    -5.7008085948
   32      H      -1.6664537724    -0.8645949309    -5.9662057324
   33      C      -0.8032788025    -2.6893628872    -6.7189928794
   34      C      -1.1817292474    -4.3483294468    -1.2569557208
   35      H      -0.3370518422    -4.5646368905    -0.5971657593
   36      H      -1.3713559383    -5.2605773809    -1.8232886457
   37      C      -2.4115820897    -4.0077311332    -0.4179573143
   38      H      -3.2786504721    -3.8225180472    -1.0503514331
   39      H      -2.6600097068    -4.8323605583     0.2499173751
   40      H      -2.2440454471    -3.1205235694     0.1951768144
   41      B      -2.4243206000    -4.2481220090    -3.9757977336
   42      C      -3.9297408364    -3.9816721530    -3.8820351577
   43      C      -4.4385580639    -2.7697758928    -3.3653969710
   44      H      -3.7481120293    -2.0010775809    -3.0320442303
   45      C      -5.7931990147    -2.5531564916    -3.2660041400
   46      C      -6.6973723296    -3.5690767540    -3.6925084881
   47      C      -6.2263569226    -4.7514831255    -4.2054748586
   48      H      -6.9251345583    -5.5166965177    -4.5274574663
   49      C      -4.8482787636    -4.9909349581    -4.3135028178
   50      C      -6.5927307493    -1.4347876668    -2.7626767364
   51      C      -6.3331785377    -0.1995921599    -2.2224488988
   52      H      -5.3207863764     0.1609491887    -2.0889988697
   53      C      -7.9436434749    -1.8211767113    -2.8978036566
   54      C      -9.0352345928    -1.0448207994    -2.5174091532
   55      C      -8.0565509692    -3.1088363878    -3.4571966833
   56      C      -9.3095631573    -3.6412328371    -3.6428904207
   57      H      -9.4528527195    -4.6282634581    -4.0655182189
   58      C      -7.4204998047     0.6147377326    -1.8319289678
   59      H      -7.2097862433     1.5884786743    -1.4078376421
   60      C      -8.7324399578     0.2219826104    -1.9659631654
   61      H      -9.5311864887     0.8813536583    -1.6488908679
   62      C     -10.3160014214    -1.6149997142    -2.7199440664
   63      H     -11.2053255508    -1.0619794301    -2.4433174261
   64      C     -10.4323134150    -2.8730687089    -3.2653447773
   65      H     -11.4195971149    -3.2932157214    -3.4109758222
   66      C      -1.9022471295    -5.5773115400    -4.5329973909
   67      C      -0.5201173674    -5.8549730293    -4.6156695811
   68      H       0.1941410040    -5.1058454808    -4.2881644685
   69      C      -0.0644964207    -7.0616498456    -5.0941413848
   70      C      -1.0033363102    -8.0439436298    -5.5242137813
   71      C      -2.3517214674    -7.7941814713    -5.4608556895
   72      H      -3.0589039705    -8.5502415118    -5.7868809161
   73      C      -2.8351865589    -6.5735718152    -4.9657998019
   74      C       1.2736993546    -7.6311704356    -5.2559666639
   75      C       2.5582296879    -7.2136848214    -5.0119728660
   76      H       2.7695279444    -6.2302389717    -4.6107282159
   77      C       1.0918528228    -8.9317270832    -5.7735760130
   78      C       2.1198868657    -9.8281339120    -6.0508488073
   79      C      -0.2738437236    -9.2247554052    -5.9555019308
   80      C      -0.6266786816   -10.4611114431    -6.4392204481
   81      H      -1.6622527765   -10.7388005163    -6.5934106691
   82      C       3.6245414710    -8.0991260930    -5.2878387012
   83      H       4.6359295003    -7.7663556102    -5.0911937106
   84      C       3.4310072072    -9.3659093787    -5.7894788770
   85      H       4.2815021232   -10.0089523606    -5.9799479232
   86      C       1.7308966844   -11.0958654526    -6.5495629584
   87      H       2.4824330808   -11.8395056939    -6.7846676200
   88      C       0.3980837704   -11.3864805532    -6.7326324793
   89      H       0.1210527746   -12.3620420230    -7.1120430072
   90      B      -4.3466101695    -6.3282095604    -4.8744416466
   91      C      -5.3813481308    -7.4333746896    -5.3516442954
   92      C      -5.9642016222    -7.3530986155    -6.6263329474
   93      C      -6.8821672954    -8.3108898629    -7.0412826614
   94      H      -7.3324893532    -8.2459825682    -8.0260787808
   95      C      -7.2261955045    -9.3617949645    -6.2101617543
   96      C      -6.6558596912    -9.4576968524    -4.9532698993
   97      H      -6.9332011784   -10.2844528878    -4.3079301042
   98      C      -5.7418829383    -8.5039296830    -4.5177913508
   99      N      -8.1647250349   -10.3345191140    -6.6466544646
  100      C      -9.5180758990   -10.1665786398    -6.3787477021
  101      C     -10.4272996697   -11.1251836961    -6.8384083699
  102      C     -11.7783857592   -10.9988243552    -6.5959145291
  103      H     -12.4471757817   -11.7635204976    -6.9698828995
  104      C     -12.2641993802    -9.9075192461    -5.8851174921
  105      H     -13.3252784101    -9.8153076692    -5.6983809329
  106      C     -11.3782840919    -8.9527711924    -5.4257609476
  107      H     -11.7357550473    -8.0959538900    -4.8706057745
  108      C     -10.0158910200    -9.0801797238    -5.6701411220
  109      H      -9.3319043430    -8.3264752339    -5.3053609302
  110      C      -7.7410524725   -11.4533014880    -7.3549010565
  111      C      -8.6904492610   -12.3841155056    -7.7906964143
  112      C      -8.3149130483   -13.5098966245    -8.4918741201
  113      H      -9.0821456216   -14.2045325593    -8.8091672634
  114      C      -6.9749228712   -13.7393609924    -8.7822695656
  115      H      -6.6868892158   -14.6239420002    -9.3334428181
  116      C      -6.0269104166   -12.8278346731    -8.3604810073
  117      H      -4.9793619833   -12.9875724260    -8.5777202311
  118      C      -6.4055492659   -11.6935332308    -7.6520647156
  119      H      -5.6544808579   -10.9870121562    -7.3272664250
  120      C      -5.2065160470    -8.6231294086    -3.1151292187
  121      H      -5.0982766359    -9.6799151813    -2.8559933287
  122      H      -4.2058084510    -8.1906027786    -3.0516162178
  123      C      -6.1229770729    -7.9445375178    -2.0995626676
  124      C      -5.5686447578    -6.2806040942    -7.6073077305
  125      H      -6.4346522666    -6.0024046720    -8.2142267320
  126      H      -5.2620072523    -5.3757128806    -7.0791416929
  127      C      -4.4376502446    -6.7475463957    -8.5209907667
  128      H      -3.5499218210    -7.0016524402    -7.9418236502
  129      H      -4.7309973187    -7.6330102377    -9.0870293437
  130      H      -4.1601112787    -5.9702136835    -9.2341464251
  131      H      -6.2228902069    -6.8804288931    -2.3134886660
  132      H      -5.7312187603    -8.0460384397    -1.0865668070
  133      H      -7.1216715071    -8.3835889513    -2.1176352580
  134      H       0.2253796756    -2.3275337202    -6.7611187862
  135      H      -1.2369524231    -2.5773912421    -7.7127244198
  136      H      -0.7780574512    -3.7535360574    -6.4889796312
  137      O     -10.0204817707   -12.2179367044    -7.5440199543
  138      O       3.1624471759     1.6616458024    -1.2808233882
 ----------------------------------------------------------------

    8   -3232.5208463298      5.10e-09  Convergence criterion met
 Total energy in the final basis set =    -3232.5208463298

         TDDFT/TDA Excitation Energies
 ---------------------------------------------------

 Excited state   1: excitation energy (eV) =    1.9031
 Total energy for state  1:                 -3232.45090889 au
    Multiplicity: Singlet
    Trans. Mom.: -0.0169 X  -0.0184 Y  -0.0081 Z
    Strength   :     0.0000320359
    D(276) --> V(  1) amplitude =  0.9987

 Excited state   2: excitation energy (eV) =    2.1697
 Total energy for state  2:                 -3232.44111284 au
    Multiplicity: Singlet
    Trans. Mom.: -0.0058 X  -0.0067 Y  -0.0029 Z
    Strength   :     0.0000046280
    D(275) --> V(  1) amplitude =  0.9986

 ---------------------------------------------------

 Final energy is   -3232.45090889346
 **  OPTIMIZATION CONVERGED  **

                    Orbital Energies (a.u.)
 --------------------------------------------------------------

 Alpha MOs
 -- Occupied --
-19.543 -19.542 -14.681 -14.678 -10.510 -10.510 -10.509 -10.509
-10.497 -10.497 -10.494 -10.494 -10.491 -10.490 -10.473 -10.473
-10.473 -10.473 -10.472 -10.472 -10.472 -10.471 -10.471 -10.471
-10.470 -10.470 -10.469 -10.469 -10.469 -10.469 -10.467 -10.467
-10.466 -10.466 -10.466 -10.466 -10.465 -10.465 -10.462 -10.462
-10.462 -10.461 -10.461 -10.461 -10.454 -10.454 -10.449 -10.449
-10.449 -10.449 -10.445 -10.445 -10.445 -10.445 -10.444 -10.444
-10.444 -10.444 -10.443 -10.443 -10.443 -10.443 -10.442 -10.442
-10.442 -10.442 -10.442 -10.442 -10.441 -10.441 -10.440 -10.440
-10.440 -10.438 -10.438 -10.438 -10.428 -10.428 -10.426 -10.426
 -6.957  -6.957  -1.222  -1.211  -1.092  -1.088  -1.023  -1.023
 -0.973  -0.972  -0.970  -0.968  -0.967  -0.966  -0.940  -0.940
 -0.939  -0.935  -0.916  -0.907  -0.900  -0.899  -0.879  -0.876
 -0.864  -0.864  -0.864  -0.862  -0.854  -0.854  -0.854  -0.850
 -0.834  -0.830  -0.827  -0.825  -0.824  -0.820  -0.820  -0.812
 -0.811  -0.810  -0.791  -0.783  -0.744  -0.741  -0.737  -0.735
 -0.731  -0.731  -0.728  -0.728  -0.722  -0.721  -0.711  -0.711
 -0.697  -0.690  -0.687  -0.679  -0.676  -0.675  -0.663  -0.655
 -0.654  -0.653  -0.650  -0.649  -0.641  -0.640  -0.637  -0.634
 -0.605  -0.603  -0.600  -0.597  -0.593  -0.591  -0.591  -0.584
 -0.584  -0.567  -0.567  -0.566  -0.566  -0.564  -0.561  -0.552
 -0.543  -0.539  -0.536  -0.535  -0.535  -0.532  -0.532  -0.531
 -0.530  -0.527  -0.522  -0.517  -0.512  -0.510  -0.509  -0.507
 -0.504  -0.499  -0.499  -0.498  -0.498  -0.497  -0.496  -0.495
 -0.495  -0.493  -0.493  -0.492  -0.492  -0.490  -0.486  -0.485
 -0.484  -0.481  -0.480  -0.474  -0.470  -0.465  -0.464  -0.461
 -0.451  -0.451  -0.449  -0.447  -0.443  -0.443  -0.442  -0.441
 -0.439  -0.436  -0.435  -0.435  -0.433  -0.432  -0.432  -0.429
 -0.428  -0.426  -0.416  -0.416  -0.414  -0.413  -0.412  -0.411
 -0.406  -0.404  -0.402  -0.402  -0.401  -0.401  -0.400  -0.400
 -0.398  -0.397  -0.395  -0.392  -0.390  -0.388  -0.383  -0.382
 -0.381  -0.375  -0.369  -0.368  -0.365  -0.361  -0.356  -0.346
 -0.328  -0.322  -0.304  -0.304  -0.302  -0.301  -0.300  -0.295
 -0.292  -0.288  -0.286  -0.285  -0.284  -0.270  -0.270  -0.269
 -0.263  -0.262  -0.210  -0.200

          Ground-State Mulliken Net Atomic Charges

     Atom                 Charge (a.u.)
  ----------------------------------------
      1 N                    -0.700519
      2 C                     0.319474
      3 C                     0.340545
      4 C                    -0.332066
      5 H                     0.234457
      6 C                    -0.242738
      7 H                     0.214960
      8 C                    -0.222476
      9 H                     0.210324
     10 C                    -0.319627
     11 H                     0.245810
     12 C                     0.320428
     13 C                    -0.318634
     14 H                     0.246114
     15 C                    -0.222800
     16 H                     0.210223
     17 C                    -0.242645
     18 H                     0.214980
     19 C                    -0.332083
     20 H                     0.234565
     21 C                     0.339569
     22 C                     0.196513
     23 C                    -0.286743
     24 H                     0.229121
     25 C                     0.049901
     26 C                    -0.287934
     27 H                     0.229262
     28 C                     0.053825
     29 C                    -0.205505
     30 C                    -0.551773
     31 H                     0.254532
     32 H                     0.234553
     33 C                    -0.648087
     34 C                    -0.551968
     35 H                     0.234588
     36 H                     0.255771
     37 C                    -0.647352
     38 H                     0.244682
     39 H                     0.222277
     40 H                     0.219207
     41 B                     0.647630
     42 C                    -0.144311
     43 C                    -0.396827
     44 H                     0.231314
     45 C                     0.119226
     46 C                     0.090510
     47 C                    -0.386458
     48 H                     0.231909
     49 C                    -0.148100
     50 C                     0.200319
     51 C                    -0.383608
     52 H                     0.218808
     53 C                    -0.067331
     54 C                     0.251712
     55 C                     0.196754
     56 C                    -0.372150
     57 H                     0.217944
     58 C                    -0.201876
     59 H                     0.229270
     60 C                    -0.334621
     61 H                     0.224014
     62 C                    -0.328981
     63 H                     0.223746
     64 C                    -0.205648
     65 H                     0.229218
     66 C                    -0.146106
     67 C                    -0.396204
     68 H                     0.230194
     69 C                     0.120740
     70 C                     0.090419
     71 C                    -0.388237
     72 H                     0.231080
     73 C                    -0.145764
     74 C                     0.199509
     75 C                    -0.382864
     76 H                     0.218959
     77 C                    -0.066747
     78 C                     0.252468
     79 C                     0.195538
     80 C                    -0.372157
     81 H                     0.218335
     82 C                    -0.202048
     83 H                     0.229429
     84 C                    -0.334955
     85 H                     0.224046
     86 C                    -0.329396
     87 H                     0.223734
     88 C                    -0.205813
     89 H                     0.229367
     90 B                     0.655754
     91 C                    -0.219875
     92 C                     0.058865
     93 C                    -0.295651
     94 H                     0.226450
     95 C                     0.223324
     96 C                    -0.298059
     97 H                     0.226529
     98 C                     0.058203
     99 N                    -0.719236
    100 C                     0.340758
    101 C                     0.346427
    102 C                    -0.344005
    103 H                     0.236033
    104 C                    -0.236212
    105 H                     0.217263
    106 C                    -0.221142
    107 H                     0.211480
    108 C                    -0.328144
    109 H                     0.243945
    110 C                     0.340950
    111 C                     0.346791
    112 C                    -0.343899
    113 H                     0.236055
    114 C                    -0.236447
    115 H                     0.217355
    116 C                    -0.221328
    117 H                     0.212450
    118 C                    -0.329127
    119 H                     0.244276
    120 C                    -0.549885
    121 H                     0.235043
    122 H                     0.254009
    123 C                    -0.645810
    124 C                    -0.551825
    125 H                     0.235828
    126 H                     0.256055
    127 C                    -0.644574
    128 H                     0.239612
    129 H                     0.219459
    130 H                     0.222853
    131 H                     0.240744
    132 H                     0.222971
    133 H                     0.218974
    134 H                     0.219576
    135 H                     0.222456
    136 H                     0.244375
    137 O                    -0.491477
    138 O                    -0.476891
  ----------------------------------------
  Sum of atomic charges =    -0.000000

                    Cartesian Multipole Moments
 -----------------------------------------------------------------
    Charge (ESU x 10^10)
                -0.0000
    Dipole Moment (Debye)
         X      -0.3284      Y      -0.5364      Z       0.0719
       Tot       0.6331
    Quadrupole Moments (Debye-Ang)
        XX    -439.7332     XY     -46.8748     YY    -456.6316
        XZ     -21.7056     YZ      10.4203     ZZ    -478.8098

 Total job time:  81616.69s(wall), 567623.98s(cpu)
        *  Thank you very much for using Q-Chem.  Have a nice day.  *
