 Q-Chem 5.1, Q-Chem, Inc., Pleasanton, CA (2018)
 Q-Chem 5.1.1 for Intel X86 EM64T Linux

User input:
--------------------------------------------------------------
$rem
threads 8
jobtype	opt
method PBEh-3c
basis def2-mSVP
mem_static	512
mem_total	6096
sym_ignore	true
solvent_method  pcm
$end

$pcm
theory iefpcm
$end
$solvent
dielectric 1.0001
$end

$molecule
read gsopt.mol
$end

--------------------------------------------------------------

   15   -1973.6968041288      8.22e-09  Convergence criterion met
 Total energy in the final basis set =    -1973.6968041288
   12   -1973.7039146920      7.80e-09  Convergence criterion met
 Total energy in the final basis set =    -1973.7039146920
   11   -1973.7044534723      9.13e-09  Convergence criterion met
 Total energy in the final basis set =    -1973.7044534723
   11   -1973.7045435316      6.00e-09  Convergence criterion met
 Total energy in the final basis set =    -1973.7045435316
   10   -1973.7045673618      5.86e-09  Convergence criterion met
 Total energy in the final basis set =    -1973.7045673618
   10   -1973.7045762301      7.19e-09  Convergence criterion met
 Total energy in the final basis set =    -1973.7045762301
    9   -1973.7045728047      8.87e-09  Convergence criterion met
 Total energy in the final basis set =    -1973.7045728047
    9   -1973.7045563006      7.11e-09  Convergence criterion met
 Total energy in the final basis set =    -1973.7045563006
    8   -1973.7045506608      8.74e-09  Convergence criterion met
 Total energy in the final basis set =    -1973.7045506608

             Standard Nuclear Orientation (Angstroms)
    I     Atom           X                Y                Z
 ----------------------------------------------------------------
    1      C      -0.0270201376    -0.2337816871     0.0737894782
    2      C      -0.0146858070    -0.1846227431     1.4706738357
    3      H       0.9318501775    -0.2256346444     1.9988249580
    4      C      -1.2050784054    -0.0869828128     2.1677769210
    5      C      -1.5003533859    -0.0216254611     3.6012810656
    6      C      -0.7600295408    -0.0287124495     4.7530538020
    7      H       0.3207043874    -0.0931762653     4.7378821693
    8      C      -1.4387432376     0.0500039168     5.9927785686
    9      H      -0.8526639995     0.0438413393     6.9023570565
   10      C      -2.8083901821     0.1331298140     6.0831434032
   11      H      -3.2819106728     0.1910719626     7.0554762427
   12      C      -2.9010867894     0.0639322522     3.7078517141
   13      C      -3.5972073825     0.1419151710     4.9079238918
   14      C      -5.0076411614     0.2193679830     4.8076912485
   15      H      -5.6123951446     0.2821433946     5.7039852891
   16      C      -5.6145947190     0.2150352147     3.5737180358
   17      H      -6.6937406837     0.2750619395     3.5183536259
   18      C      -4.8791969673     0.1346031910     2.3679913981
   19      H      -5.4032107660     0.1345399377     1.4201061479
   20      C      -3.5135225114     0.0577606636     2.4404055938
   21      C      -2.4301583330    -0.0396104162     1.4641786061
   22      C      -2.4524485504    -0.0908252022     0.0813306610
   23      H      -3.3952523038    -0.0576953006    -0.4548582385
   24      C      -1.2548928010    -0.1865715936    -0.6308230890
   25      B       1.3076930098    -0.3528310462    -0.7084735655
   26      C       1.3004741686    -0.3757465046    -2.2599940349
   27      C       2.5100304901    -0.4468569978    -2.9562554144
   28      H       3.4443219653    -0.4870060150    -2.4072250386
   29      C       2.5084780702    -0.4668764639    -4.3377909976
   30      C       3.5969614969    -0.5334068415    -5.3163382840
   31      C       4.9636761426    -0.5976878571    -5.2578142039
   32      H       5.4960752267    -0.6087273232    -4.3151117290
   33      C       5.6909912519    -0.6512091068    -6.4709383882
   34      H       6.7708289603    -0.7013517943    -6.4228659018
   35      C       5.0786656194    -0.6426830419    -7.7021431248
   36      H       5.6783458936    -0.6857763821    -8.6030629773
   37      C       2.9828199929    -0.5259219368    -6.5826629911
   38      C       3.6678895430    -0.5785440331    -7.7915506737
   39      C       2.8731278067    -0.5631881644    -8.9635190800
   40      H       3.3433764151    -0.6019183492    -9.9385091563
   41      C       1.5030919172    -0.4991129006    -8.8677873312
   42      H       0.9121071265    -0.4881579037    -9.7743906004
   43      C       0.8327651827    -0.4470547899    -7.6228984504
   44      H      -0.2489544501    -0.3980619667    -7.6001869063
   45      C       1.5811595192    -0.4606696297    -6.4752449041
   46      C       1.2849281292    -0.4232012707    -5.0439579296
   47      C       0.0823372192    -0.3593860476    -4.3638969632
   48      H      -0.8552096049    -0.3312397323    -4.9095342719
   49      C       0.0751969249    -0.3306486733    -2.9671410988
   50      B      -1.2700974160    -0.2488747846    -2.1880302242
   51      C      -2.6299669620    -0.2339891822    -2.9761769908
   52      C      -3.2031408099     0.9720870475    -3.3895576818
   53      C      -4.3963301821     0.9629955024    -4.1048808349
   54      H      -4.8301676986     1.9064003273    -4.4196431971
   55      C      -5.0425176044    -0.2223988503    -4.4250746717
   56      C      -4.4631773880    -1.4160814238    -4.0100150865
   57      H      -4.9520298022    -2.3552259889    -4.2498244387
   58      C      -3.2735857345    -1.4370837805    -3.2956674485
   59      C      -6.3272364430    -0.2292025046    -5.2021187826
   60      H      -6.6882630251     0.7811169502    -5.3911592519
   61      H      -7.1135383088    -0.7653329626    -4.6683556383
   62      H      -6.2045129529    -0.7200773632    -6.1693368636
   63      C      -2.5233745207     2.2730670721    -3.0677555528
   64      H      -3.0959748670     3.1285651904    -3.4251684556
   65      H      -1.5328050402     2.3282487990    -3.5252770919
   66      H      -2.3852218002     2.3976318740    -1.9914908952
   67      C      -2.6677487131    -2.7453426264    -2.8701871231
   68      H      -3.2893074159    -3.5924843629    -3.1594155490
   69      H      -2.5345500438    -2.7913601925    -1.7870563882
   70      H      -1.6832692951    -2.8929972941    -3.3201985388
   71      C       2.6685247658    -0.4668327747     0.0580896977
   72      C       3.1754071963    -1.7238066728     0.3952717477
   73      C       4.3907055261    -1.8184782903     1.0645653052
   74      H       4.7767923467    -2.7990987348     1.3228970573
   75      C       5.1194183548    -0.6882683839     1.4073619951
   76      C       4.6055503278     0.5570071028     1.0609630575
   77      H       5.1637200814     1.4519649716     1.3173283165
   78      C       3.3948733453     0.6810790871     0.3935984908
   79      C       6.4239241132    -0.7985904478     2.1420439743
   80      H       6.7458845313    -1.8354501673     2.2334455929
   81      H       7.2178990055    -0.2502588491     1.6331473573
   82      H       6.3470044324    -0.3901176419     3.1513430757
   83      C       2.8557332090     2.0339556671     0.0200863664
   84      H       3.5151130003     2.8381996257     0.3451378998
   85      H       2.7312266574     2.1280866540    -1.0614148639
   86      H       1.8753965802     2.2108918348     0.4685769244
   87      C       2.4062190629    -2.9626549911     0.0262973321
   88      H       2.9130432846    -3.8687956097     0.3572945996
   89      H       2.2698463711    -3.0410080733    -1.0550198122
   90      H       1.4093302882    -2.9634672111     0.4733506395
 ----------------------------------------------------------------

    9   -1973.7045499700      4.79e-09  Convergence criterion met
 Total energy in the final basis set =    -1973.7045499700
 Final energy is   -1973.70454997000
 **  OPTIMIZATION CONVERGED  **

                    Orbital Energies (a.u.)
 --------------------------------------------------------------

 Alpha MOs
 -- Occupied --
-10.463 -10.463 -10.463 -10.463 -10.463 -10.463 -10.461 -10.461
-10.460 -10.460 -10.460 -10.460 -10.460 -10.460 -10.459 -10.459
-10.458 -10.458 -10.458 -10.458 -10.458 -10.458 -10.451 -10.451
-10.451 -10.450 -10.446 -10.446 -10.446 -10.445 -10.445 -10.445
-10.444 -10.444 -10.431 -10.431 -10.430 -10.430 -10.429 -10.428
-10.428 -10.428 -10.428 -10.428 -10.424 -10.424 -10.424 -10.424
-10.416 -10.414  -6.946  -6.943  -1.014  -1.014  -0.961  -0.957
 -0.954  -0.953  -0.932  -0.932  -0.907  -0.898  -0.870  -0.867
 -0.866  -0.865  -0.852  -0.851  -0.845  -0.845  -0.819  -0.812
 -0.810  -0.802  -0.779  -0.779  -0.757  -0.755  -0.755  -0.755
 -0.732  -0.726  -0.725  -0.718  -0.687  -0.678  -0.678  -0.663
 -0.650  -0.645  -0.638  -0.637  -0.637  -0.634  -0.593  -0.591
 -0.590  -0.587  -0.582  -0.573  -0.573  -0.550  -0.545  -0.542
 -0.539  -0.538  -0.526  -0.526  -0.517  -0.506  -0.501  -0.496
 -0.495  -0.494  -0.490  -0.484  -0.482  -0.482  -0.479  -0.479
 -0.478  -0.477  -0.474  -0.467  -0.466  -0.465  -0.462  -0.462
 -0.462  -0.458  -0.454  -0.453  -0.449  -0.447  -0.445  -0.444
 -0.442  -0.439  -0.430  -0.428  -0.427  -0.421  -0.411  -0.410
 -0.410  -0.400  -0.397  -0.393  -0.393  -0.392  -0.390  -0.387
 -0.380  -0.378  -0.378  -0.377  -0.375  -0.365  -0.349  -0.349
 -0.342  -0.334  -0.316  -0.311  -0.293  -0.293  -0.278  -0.270
 -0.269  -0.263  -0.260  -0.259  -0.254  -0.253

          Ground-State Mulliken Net Atomic Charges

     Atom                 Charge (a.u.)
  ----------------------------------------
      1 C                    -0.154812
      2 C                    -0.390348
      3 H                     0.234985
      4 C                     0.101161
      5 C                     0.199929
      6 C                    -0.384195
      7 H                     0.220719
      8 C                    -0.203652
      9 H                     0.226078
     10 C                    -0.336036
     11 H                     0.219932
     12 C                    -0.063439
     13 C                     0.253029
     14 C                    -0.334115
     15 H                     0.219749
     16 C                    -0.205101
     17 H                     0.226203
     18 C                    -0.379120
     19 H                     0.220679
     20 C                     0.193870
     21 C                     0.095534
     22 C                    -0.388228
     23 H                     0.233550
     24 C                    -0.155868
     25 B                     0.705141
     26 C                    -0.155154
     27 C                    -0.388927
     28 H                     0.236916
     29 C                     0.100676
     30 C                     0.201411
     31 C                    -0.384940
     32 H                     0.221067
     33 C                    -0.203439
     34 H                     0.225966
     35 C                    -0.336080
     36 H                     0.219878
     37 C                    -0.064722
     38 C                     0.251753
     39 C                    -0.333226
     40 H                     0.219667
     41 C                    -0.205208
     42 H                     0.226202
     43 C                    -0.379100
     44 H                     0.220500
     45 C                     0.195061
     46 C                     0.094687
     47 C                    -0.388295
     48 H                     0.234426
     49 C                    -0.155120
     50 B                     0.708492
     51 C                    -0.221688
     52 C                     0.062614
     53 C                    -0.344407
     54 H                     0.196003
     55 C                     0.131356
     56 C                    -0.340113
     57 H                     0.196406
     58 C                     0.061162
     59 C                    -0.709619
     60 H                     0.225911
     61 H                     0.229317
     62 H                     0.230425
     63 C                    -0.759317
     64 H                     0.234236
     65 H                     0.243291
     66 H                     0.243533
     67 C                    -0.760204
     68 H                     0.234487
     69 H                     0.243891
     70 H                     0.243742
     71 C                    -0.225305
     72 C                     0.064577
     73 C                    -0.348003
     74 H                     0.196062
     75 C                     0.131395
     76 C                    -0.340945
     77 H                     0.196046
     78 C                     0.067721
     79 C                    -0.709167
     80 H                     0.225861
     81 H                     0.228213
     82 H                     0.230843
     83 C                    -0.759699
     84 H                     0.234072
     85 H                     0.243829
     86 H                     0.243799
     87 C                    -0.762666
     88 H                     0.234851
     89 H                     0.244866
     90 H                     0.244486
  ----------------------------------------
  Sum of atomic charges =    -0.000000

                    Cartesian Multipole Moments
 -----------------------------------------------------------------
    Charge (ESU x 10^10)
                -0.0000
    Dipole Moment (Debye)
         X      -0.0147      Y       0.0036      Z      -0.0351
       Tot       0.0382
    Quadrupole Moments (Debye-Ang)
        XX    -262.0976     XY      -1.7466     YY    -302.7827
        XZ      -5.0082     YZ       1.8041     ZZ    -255.4785

 Total job time:  13339.16s(wall), 88383.07s(cpu)
        *  Thank you very much for using Q-Chem.  Have a nice day.  *
