 Q-Chem 5.1, Q-Chem, Inc., Pleasanton, CA (2018)
 Q-Chem 5.1.1 for Intel X86 EM64T Linux

User input:
--------------------------------------------------------------
$rem
threads 8
jobtype	opt
method PBEh-3c
basis def2-mSVP
mem_static	512
mem_total	6096
sym_ignore	true
solvent_method  pcm
$end

$pcm
theory iefpcm
$end
$solvent
dielectric 7
$end

$molecule
read gsopt.mol
$end

--------------------------------------------------------------

   14   -1973.7174603044      9.21e-09  Convergence criterion met
 Total energy in the final basis set =    -1973.7174603044
   13   -1973.7243465382      5.35e-09  Convergence criterion met
 Total energy in the final basis set =    -1973.7243465382
   13   -1973.7248715983      5.25e-09  Convergence criterion met
 Total energy in the final basis set =    -1973.7248715983
   13   -1973.7249554187      5.08e-09  Convergence criterion met
 Total energy in the final basis set =    -1973.7249554187
   13   -1973.7249788156      4.99e-09  Convergence criterion met
 Total energy in the final basis set =    -1973.7249788156
   13   -1973.7249885844      5.02e-09  Convergence criterion met
 Total energy in the final basis set =    -1973.7249885844
   13   -1973.7249818718      4.88e-09  Convergence criterion met
 Total energy in the final basis set =    -1973.7249818718
   13   -1973.7249612916      4.85e-09  Convergence criterion met
 Total energy in the final basis set =    -1973.7249612916
   13   -1973.7249540988      4.87e-09  Convergence criterion met
 Total energy in the final basis set =    -1973.7249540988

             Standard Nuclear Orientation (Angstroms)
    I     Atom           X                Y                Z
 ----------------------------------------------------------------
    1      C      -0.0269614986    -0.2305139471     0.0744685017
    2      C      -0.0147970809    -0.1771022988     1.4717470280
    3      H       0.9287916868    -0.2195865867     2.0047346415
    4      C      -1.2053499807    -0.0711942110     2.1689331094
    5      C      -1.4996778868     0.0024383675     3.6021926657
    6      C      -0.7577087549    -0.0015397904     4.7544223613
    7      H       0.3229070783    -0.0704713263     4.7397277147
    8      C      -1.4369404395     0.0871295191     5.9942310234
    9      H      -0.8505104064     0.0834772678     6.9037152115
   10      C      -2.8076100723     0.1768793611     6.0843595514
   11      H      -3.2816804488     0.2424642186     7.0560428981
   12      C      -2.9005863638     0.0947602994     3.7075110083
   13      C      -3.5965161809     0.1827372255     4.9080376959
   14      C      -5.0075854296     0.2666206484     4.8083866347
   15      H      -5.6109946063     0.3371974539     5.7051192332
   16      C      -5.6154218672     0.2585465798     3.5732676357
   17      H      -6.6943461851     0.3235396305     3.5174806698
   18      C      -4.8808434695     0.1679944752     2.3666870751
   19      H      -5.4054581062     0.1655612300     1.4189549189
   20      C      -3.5143174259     0.0849619885     2.4401050572
   21      C      -2.4311108316    -0.0218773699     1.4646422722
   22      C      -2.4533120614    -0.0794678040     0.0812221261
   23      H      -3.3984310051    -0.0451201355    -0.4504810698
   24      C      -1.2556059153    -0.1815439537    -0.6308818717
   25      B       1.3087672808    -0.3548678804    -0.7070972271
   26      C       1.3013938387    -0.3685461966    -2.2596106517
   27      C       2.5117065131    -0.4336120793    -2.9562215748
   28      H       3.4484007413    -0.4738025526    -2.4116019235
   29      C       2.5109155373    -0.4473596748    -4.3386426573
   30      C       3.6001889019    -0.5079096026    -5.3166717688
   31      C       4.9682537269    -0.5693054120    -5.2570502996
   32      H       5.5007899538    -0.5819515583    -4.3142743519
   33      C       5.6958894663    -0.6178346335    -6.4712597855
   34      H       6.7758949762    -0.6658359066    -6.4227415431
   35      C       5.0832728797    -0.6069962942    -7.7039006458
   36      H       5.6824888303    -0.6463432831    -8.6054243053
   37      C       2.9853262683    -0.4976983922    -6.5832137244
   38      C       3.6713965825    -0.5454212223    -7.7927940439
   39      C       2.8770750553    -0.5283264842    -8.9661872281
   40      H       3.3486832883    -0.5633804800    -9.9407550533
   41      C       1.5054591169    -0.4675967657    -8.8707055530
   42      H       0.9145328945    -0.4554006689    -9.7774487279
   43      C       0.8334603942    -0.4205401710    -7.6254601080
   44      H      -0.2485483486    -0.3742104514    -7.6034251851
   45      C       1.5828752633    -0.4358766471    -6.4769755375
   46      C       1.2866210646    -0.4039731678    -5.0455335486
   47      C       0.0831152826    -0.3459554268    -4.3649061236
   48      H      -0.8515435923    -0.3181344723    -4.9151718325
   49      C       0.0753434764    -0.3230568659    -2.9675054624
   50      B      -1.2716969684    -0.2489397858    -2.1887924375
   51      C      -2.6323054074    -0.2494708563    -2.9766742008
   52      C      -3.2203439756     0.9499845805    -3.3909901164
   53      C      -4.4153175883     0.9264407157    -4.1055351993
   54      H      -4.8605757776     1.8645484032    -4.4208231032
   55      C      -5.0485568073    -0.2679092142    -4.4242964369
   56      C      -4.4539886666    -1.4553357677    -4.0084307972
   57      H      -4.9316870769    -2.4007742300    -4.2464694917
   58      C      -3.2623553371    -1.4610076367    -3.2947332974
   59      C      -6.3343507791    -0.2898011917    -5.1999519304
   60      H      -6.7070568248     0.7166149271    -5.3872062228
   61      H      -7.1120560842    -0.8383262592    -4.6660778190
   62      H      -6.2059194310    -0.7796652572    -6.1670543676
   63      C      -2.5572773892     2.2606710516    -3.0725722036
   64      H      -3.1409187751     3.1070684300    -3.4337210020
   65      H      -1.5668000849     2.3268271943    -3.5291789734
   66      H      -2.4212873229     2.3903629141    -1.9965158079
   67      C      -2.6423894719    -2.7630752221    -2.8695846167
   68      H      -3.2570897545    -3.6159391532    -3.1565738395
   69      H      -2.5048948152    -2.8068398168    -1.7867573711
   70      H      -1.6576415934    -2.9016496061    -3.3222602052
   71      C       2.6685111956    -0.4841057497     0.0597197235
   72      C       3.1675725811    -1.7478983508     0.3859390053
   73      C       4.3832139153    -1.8571116488     1.0552563002
   74      H       4.7628901771    -2.8427269257     1.3047548235
   75      C       5.1201081817    -0.7336648452     1.4082098617
   76      C       4.6139957934     0.5189679578     1.0720007714
   77      H       5.1780169507     1.4083306788     1.3355054509
   78      C       3.4030613174     0.6565673350     0.4051452138
   79      C       6.4242040069    -0.8593096717     2.1419486058
   80      H       6.7385294208    -1.8993348568     2.2233647420
   81      H       7.2204509929    -0.3088817794     1.6388056034
   82      H       6.3490474466    -0.4584290148     3.1545381267
   83      C       2.8756669633     2.0177124956     0.0440371197
   84      H       3.5435067523     2.8121210150     0.3758568049
   85      H       2.7506923672     2.1225525644    -1.0365619453
   86      H       1.8972672747     2.1997138151     0.4949964647
   87      C       2.3923221956    -2.9802094179     0.0065213345
   88      H       2.8932053596    -3.8906960855     0.3345806274
   89      H       2.2596189731    -3.0513994168    -1.0758871631
   90      H       1.3932414818    -2.9780148968     0.4489931559
 ----------------------------------------------------------------

   13   -1973.7249536421      4.88e-09  Convergence criterion met
 Total energy in the final basis set =    -1973.7249536421
 Final energy is   -1973.72495364212
 **  OPTIMIZATION CONVERGED  **

                    Orbital Energies (a.u.)
 --------------------------------------------------------------

 Alpha MOs
 -- Occupied --
-10.467 -10.466 -10.466 -10.466 -10.466 -10.466 -10.465 -10.465
-10.464 -10.464 -10.463 -10.463 -10.462 -10.462 -10.461 -10.461
-10.461 -10.461 -10.458 -10.458 -10.458 -10.458 -10.456 -10.456
-10.456 -10.456 -10.451 -10.451 -10.451 -10.451 -10.450 -10.449
-10.449 -10.449 -10.438 -10.437 -10.436 -10.436 -10.433 -10.433
-10.432 -10.432 -10.427 -10.427 -10.426 -10.426 -10.426 -10.426
-10.421 -10.419  -6.952  -6.949  -1.018  -1.018  -0.965  -0.961
 -0.958  -0.957  -0.933  -0.933  -0.911  -0.902  -0.873  -0.870
 -0.870  -0.869  -0.856  -0.855  -0.847  -0.847  -0.823  -0.815
 -0.813  -0.806  -0.780  -0.780  -0.760  -0.758  -0.758  -0.757
 -0.735  -0.727  -0.727  -0.721  -0.689  -0.682  -0.680  -0.667
 -0.654  -0.648  -0.641  -0.640  -0.640  -0.637  -0.594  -0.593
 -0.591  -0.587  -0.583  -0.575  -0.574  -0.553  -0.548  -0.543
 -0.542  -0.541  -0.528  -0.526  -0.519  -0.509  -0.503  -0.498
 -0.497  -0.496  -0.494  -0.487  -0.487  -0.486  -0.481  -0.480
 -0.480  -0.479  -0.475  -0.468  -0.466  -0.465  -0.465  -0.464
 -0.463  -0.460  -0.456  -0.456  -0.450  -0.449  -0.446  -0.445
 -0.444  -0.440  -0.433  -0.431  -0.430  -0.426  -0.414  -0.412
 -0.412  -0.402  -0.398  -0.396  -0.396  -0.393  -0.392  -0.390
 -0.384  -0.382  -0.381  -0.380  -0.380  -0.370  -0.354  -0.353
 -0.348  -0.339  -0.322  -0.316  -0.297  -0.296  -0.283  -0.275
 -0.275  -0.268  -0.265  -0.264  -0.260  -0.258

          Ground-State Mulliken Net Atomic Charges

     Atom                 Charge (a.u.)
  ----------------------------------------
      1 C                    -0.156970
      2 C                    -0.393725
      3 H                     0.247413
      4 C                     0.084449
      5 C                     0.182950
      6 C                    -0.393987
      7 H                     0.250824
      8 C                    -0.230966
      9 H                     0.255762
     10 C                    -0.348443
     11 H                     0.252674
     12 C                    -0.066044
     13 C                     0.223724
     14 C                    -0.346771
     15 H                     0.252449
     16 C                    -0.232151
     17 H                     0.255890
     18 C                    -0.389366
     19 H                     0.250798
     20 C                     0.177057
     21 C                     0.078695
     22 C                    -0.391939
     23 H                     0.246585
     24 C                    -0.157931
     25 B                     0.700074
     26 C                    -0.157103
     27 C                    -0.391775
     28 H                     0.248699
     29 C                     0.083984
     30 C                     0.184394
     31 C                    -0.394733
     32 H                     0.250895
     33 C                    -0.230674
     34 H                     0.255626
     35 C                    -0.348495
     36 H                     0.252612
     37 C                    -0.067335
     38 C                     0.222483
     39 C                    -0.345938
     40 H                     0.252440
     41 C                    -0.232247
     42 H                     0.255960
     43 C                    -0.389398
     44 H                     0.250516
     45 C                     0.178295
     46 C                     0.078039
     47 C                    -0.391583
     48 H                     0.246957
     49 C                    -0.157547
     50 B                     0.703783
     51 C                    -0.219967
     52 C                     0.051974
     53 C                    -0.368541
     54 H                     0.223442
     55 C                     0.111715
     56 C                    -0.361125
     57 H                     0.222479
     58 C                     0.047820
     59 C                    -0.721582
     60 H                     0.237508
     61 H                     0.238398
     62 H                     0.239351
     63 C                    -0.770779
     64 H                     0.249464
     65 H                     0.246566
     66 H                     0.246632
     67 C                    -0.771874
     68 H                     0.250011
     69 H                     0.247123
     70 H                     0.247001
     71 C                    -0.222852
     72 C                     0.051212
     73 C                    -0.372243
     74 H                     0.223387
     75 C                     0.111709
     76 C                    -0.361413
     77 H                     0.222059
     78 C                     0.056729
     79 C                    -0.721218
     80 H                     0.237370
     81 H                     0.237594
     82 H                     0.239503
     83 C                    -0.771153
     84 H                     0.249439
     85 H                     0.246932
     86 H                     0.246955
     87 C                    -0.774030
     88 H                     0.250290
     89 H                     0.247631
     90 H                     0.247573
  ----------------------------------------
  Sum of atomic charges =    -0.000000

                    Cartesian Multipole Moments
 -----------------------------------------------------------------
    Charge (ESU x 10^10)
                -0.0000
    Dipole Moment (Debye)
         X      -0.0072      Y       0.0423      Z      -0.0540
       Tot       0.0690
    Quadrupole Moments (Debye-Ang)
        XX    -249.6273     XY      -2.3611     YY    -300.9751
        XZ      -7.6906     YZ       2.5109     ZZ    -239.6965

 Total job time:  16008.15s(wall), 107745.40s(cpu)
        *  Thank you very much for using Q-Chem.  Have a nice day.  *
