 Q-Chem 5.1, Q-Chem, Inc., Pleasanton, CA (2018)
 Q-Chem 5.1.1 for Intel X86 EM64T Linux

User input:
--------------------------------------------------------------
$rem
threads 8
jobtype	opt
method PBEh-3c
basis def2-mSVP
mem_static	512
mem_total	6096
sym_ignore	true
solvent_method  pcm
$end

$pcm
theory iefpcm
$end
$solvent
dielectric 20
$end

$molecule
read gsopt.mol
$end

--------------------------------------------------------------

   14   -1973.7217456404      7.42e-09  Convergence criterion met
 Total energy in the final basis set =    -1973.7217456404
   13   -1973.7285934743      5.59e-09  Convergence criterion met
 Total energy in the final basis set =    -1973.7285934743
   13   -1973.7291177818      5.41e-09  Convergence criterion met
 Total energy in the final basis set =    -1973.7291177818
   13   -1973.7291992950      5.22e-09  Convergence criterion met
 Total energy in the final basis set =    -1973.7291992950
   13   -1973.7292218723      5.14e-09  Convergence criterion met
 Total energy in the final basis set =    -1973.7292218723
   13   -1973.7292321120      5.17e-09  Convergence criterion met
 Total energy in the final basis set =    -1973.7292321120
   13   -1973.7292240523      5.05e-09  Convergence criterion met
 Total energy in the final basis set =    -1973.7292240523
   13   -1973.7292006230      5.03e-09  Convergence criterion met
 Total energy in the final basis set =    -1973.7292006230
   13   -1973.7291938537      5.04e-09  Convergence criterion met
 Total energy in the final basis set =    -1973.7291938537
   13   -1973.7291922986      5.06e-09  Convergence criterion met
 Total energy in the final basis set =    -1973.7291922986

             Standard Nuclear Orientation (Angstroms)
    I     Atom           X                Y                Z
 ----------------------------------------------------------------
    1      C      -0.0273024288    -0.2270660950     0.0751204653
    2      C      -0.0153572096    -0.1704727722     1.4723731444
    3      H       0.9274770886    -0.2127268026     2.0066687848
    4      C      -1.2060733914    -0.0612616024     2.1691800030
    5      C      -1.5003368118     0.0169493814     3.6021679742
    6      C      -0.7582415231     0.0155228806     4.7546716890
    7      H       0.3223235023    -0.0545257585     4.7403694133
    8      C      -1.4377579512     0.1085194718     5.9942210725
    9      H      -0.8513758149     0.1069438570     6.9037420784
   10      C      -2.8086495197     0.1999908603     6.0839314531
   11      H      -3.2831190005     0.2689662725     7.0551876698
   12      C      -2.9013055043     0.1110810975     3.7068326700
   13      C      -3.5973535375     0.2032149840     4.9072303437
   14      C      -5.0085300233     0.2882158113     4.8074109442
   15      H      -5.6116144502     0.3618683696     5.7041143075
   16      C      -5.6164355264     0.2772515440     3.5720010766
   17      H      -6.6952882002     0.3431683707     3.5159401007
   18      C      -4.8819121916     0.1825620074     2.3654807479
   19      H      -5.4064998396     0.1779928834     1.4177219944
   20      C      -3.5151964046     0.0982834082     2.4393759572
   21      C      -2.4318843044    -0.0125606458     1.4644419763
   22      C      -2.4538993015    -0.0740535541     0.0809642805
   23      H      -3.3994270521    -0.0403886529    -0.4499800457
   24      C      -1.2560388057    -0.1787050729    -0.6307158422
   25      B       1.3086702610    -0.3545363136    -0.7058167167
   26      C       1.3016912297    -0.3641946901    -2.2586375509
   27      C       2.5124067460    -0.4253769425    -2.9551307619
   28      H       3.4496093842    -0.4648709323    -2.4114070957
   29      C       2.5120746673    -0.4359341152    -4.3377800678
   30      C       3.6019067202    -0.4915167535    -5.3154399842
   31      C       4.9703896229    -0.5495310137    -5.2553685291
   32      H       5.5027645421    -0.5627086433    -4.3124896768
   33      C       5.6984797191    -0.5936797256    -6.4697037544
   34      H       6.7785913444    -0.6389199720    -6.4208815674
   35      C       5.0860680132    -0.5819912999    -7.7027789697
   36      H       5.6853594296    -0.6179019149    -8.6043953802
   37      C       2.9871454937    -0.4803456990    -6.5821819341
   38      C       3.6738565054    -0.5239512540    -7.7918115253
   39      C       2.8799540147    -0.5068613639    -8.9657223309
   40      H       3.3523464546    -0.5388866522    -9.9400139483
   41      C       1.5078409526    -0.4500293956    -8.8705986716
   42      H       0.9171657612    -0.4378199926    -9.7775045083
   43      C       0.8350242504    -0.4071091251    -7.6254142257
   44      H      -0.2471328829    -0.3638225675    -7.6037039123
   45      C       1.5843322247    -0.4224954579    -6.4765130098
   46      C       1.2876823724    -0.3941718661    -5.0450738808
   47      C       0.0836811127    -0.3404451199    -4.3645375841
   48      H      -0.8502720498    -0.3140703537    -4.9160102212
   49      C       0.0755060408    -0.3198857093    -2.9669732955
   50      B      -1.2721945647    -0.2499478427    -2.1886585096
   51      C      -2.6329280045    -0.2585467575    -2.9762297787
   52      C      -3.2255312300     0.9368830980    -3.3961345056
   53      C      -4.4210876793     0.9056326312    -4.1098714702
   54      H      -4.8699241132     1.8406063292    -4.4294223144
   55      C      -5.0503887826    -0.2927570647    -4.4224063519
   56      C      -4.4511957595    -1.4762799879    -4.0011671162
   57      H      -4.9256102961    -2.4246264549    -4.2341462620
   58      C      -3.2588179271    -1.4740012953    -3.2882332751
   59      C      -6.3367343254    -0.3227968525    -5.1969236753
   60      H      -6.7122868081     0.6815367875    -5.3894709459
   61      H      -7.1121040782    -0.8711235686    -4.6594507368
   62      H      -6.2074842354    -0.8181268053    -6.1611383969
   63      C      -2.5672582152     2.2517826828    -3.0850101852
   64      H      -3.1553649599     3.0939264686    -3.4487777936
   65      H      -1.5780420512     2.3199413221    -3.5441362526
   66      H      -2.4294430924     2.3868252668    -2.0097998310
   67      C      -2.6341982290    -2.7720547375    -2.8573996718
   68      H      -3.2452107930    -3.6282931056    -3.1420895085
   69      H      -2.4978547899    -2.8113041142    -1.7742138920
   70      H      -1.6482913882    -2.9083953978    -3.3083321092
   71      C       2.6676860822    -0.4926558649     0.0606969457
   72      C       3.1609602854    -1.7604996336     0.3807521650
   73      C       4.3772399456    -1.8788721593     1.0478643168
   74      H       4.7523566025    -2.8674598771     1.2925178155
   75      C       5.1204998429    -0.7604421234     1.4044898611
   76      C       4.6200558034     0.4964057214     1.0745350284
   77      H       5.1889512170     1.3817875890     1.3409402127
   78      C       3.4085115005     0.6428966698     0.4101410223
   79      C       6.4252446406    -0.8960422099     2.1353802830
   80      H       6.7348998771    -1.9379503817     2.2102754301
   81      H       7.2227676703    -0.3456105576     1.6342872300
   82      H       6.3533960696    -0.5003076734     3.1502494902
   83      C       2.8880071195     2.0085120948     0.0557132961
   84      H       3.5598132112     2.7977093326     0.3918402791
   85      H       2.7640807569     2.1194048712    -1.0244527197
   86      H       1.9103342488     2.1931058869     0.5072530473
   87      C       2.3798484315    -2.9878014374    -0.0031995348
   88      H       2.8760798734    -3.9016049981     0.3226277434
   89      H       2.2479376578    -3.0550842047    -1.0860034453
   90      H       1.3802423143    -2.9821630429     0.4381133757
 ----------------------------------------------------------------

   13   -1973.7291926033      5.08e-09  Convergence criterion met
 Total energy in the final basis set =    -1973.7291926033
 Final energy is   -1973.72919260332
 **  OPTIMIZATION CONVERGED  **

                    Orbital Energies (a.u.)
 --------------------------------------------------------------

 Alpha MOs
 -- Occupied --
-10.468 -10.468 -10.468 -10.467 -10.467 -10.467 -10.466 -10.466
-10.466 -10.465 -10.464 -10.464 -10.464 -10.463 -10.462 -10.462
-10.462 -10.462 -10.459 -10.459 -10.459 -10.459 -10.458 -10.458
-10.458 -10.457 -10.453 -10.453 -10.452 -10.452 -10.451 -10.451
-10.450 -10.450 -10.440 -10.439 -10.438 -10.438 -10.434 -10.434
-10.433 -10.433 -10.427 -10.427 -10.427 -10.427 -10.427 -10.426
-10.423 -10.421  -6.954  -6.951  -1.019  -1.019  -0.966  -0.962
 -0.959  -0.958  -0.934  -0.934  -0.912  -0.904  -0.874  -0.871
 -0.871  -0.871  -0.858  -0.857  -0.848  -0.847  -0.825  -0.816
 -0.814  -0.808  -0.781  -0.781  -0.761  -0.759  -0.759  -0.758
 -0.737  -0.729  -0.728  -0.722  -0.690  -0.683  -0.681  -0.668
 -0.655  -0.650  -0.642  -0.642  -0.641  -0.638  -0.595  -0.594
 -0.591  -0.588  -0.584  -0.576  -0.575  -0.554  -0.549  -0.544
 -0.543  -0.542  -0.529  -0.527  -0.521  -0.510  -0.504  -0.500
 -0.498  -0.497  -0.495  -0.489  -0.489  -0.487  -0.482  -0.481
 -0.481  -0.480  -0.476  -0.468  -0.467  -0.466  -0.466  -0.466
 -0.464  -0.460  -0.457  -0.456  -0.451  -0.449  -0.447  -0.446
 -0.444  -0.440  -0.435  -0.432  -0.431  -0.428  -0.415  -0.413
 -0.412  -0.403  -0.399  -0.398  -0.397  -0.394  -0.393  -0.391
 -0.385  -0.384  -0.382  -0.381  -0.381  -0.371  -0.356  -0.355
 -0.349  -0.341  -0.324  -0.318  -0.298  -0.297  -0.285  -0.277
 -0.277  -0.269  -0.266  -0.265  -0.262  -0.259

          Ground-State Mulliken Net Atomic Charges

     Atom                 Charge (a.u.)
  ----------------------------------------
      1 C                    -0.157406
      2 C                    -0.393969
      3 H                     0.249836
      4 C                     0.080454
      5 C                     0.178984
      6 C                    -0.395304
      7 H                     0.256661
      8 C                    -0.236154
      9 H                     0.261689
     10 C                    -0.350097
     11 H                     0.259498
     12 C                    -0.067233
     13 C                     0.216792
     14 C                    -0.348482
     15 H                     0.259284
     16 C                    -0.237299
     17 H                     0.261797
     18 C                    -0.390767
     19 H                     0.256626
     20 C                     0.173104
     21 C                     0.074667
     22 C                    -0.392141
     23 H                     0.249167
     24 C                    -0.158386
     25 B                     0.697975
     26 C                    -0.157572
     27 C                    -0.391891
     28 H                     0.251025
     29 C                     0.080023
     30 C                     0.180489
     31 C                    -0.396071
     32 H                     0.256635
     33 C                    -0.235885
     34 H                     0.261542
     35 C                    -0.350145
     36 H                     0.259468
     37 C                    -0.068577
     38 C                     0.215519
     39 C                    -0.347634
     40 H                     0.259273
     41 C                    -0.237390
     42 H                     0.261904
     43 C                    -0.390809
     44 H                     0.256382
     45 C                     0.174326
     46 C                     0.074002
     47 C                    -0.391713
     48 H                     0.249516
     49 C                    -0.158146
     50 B                     0.701811
     51 C                    -0.219765
     52 C                     0.050089
     53 C                    -0.372527
     54 H                     0.229344
     55 C                     0.107360
     56 C                    -0.364578
     57 H                     0.228039
     58 C                     0.044751
     59 C                    -0.723412
     60 H                     0.239895
     61 H                     0.240052
     62 H                     0.240953
     63 C                    -0.772601
     64 H                     0.253107
     65 H                     0.246429
     66 H                     0.246452
     67 C                    -0.773756
     68 H                     0.253763
     69 H                     0.246914
     70 H                     0.246824
     71 C                    -0.222412
     72 C                     0.047846
     73 C                    -0.376541
     74 H                     0.229273
     75 C                     0.107325
     76 C                    -0.364463
     77 H                     0.227652
     78 C                     0.054834
     79 C                    -0.723062
     80 H                     0.239690
     81 H                     0.239390
     82 H                     0.241080
     83 C                    -0.772920
     84 H                     0.253086
     85 H                     0.246729
     86 H                     0.246833
     87 C                    -0.775827
     88 H                     0.254030
     89 H                     0.247372
     90 H                     0.247379
  ----------------------------------------
  Sum of atomic charges =    -0.000000

                    Cartesian Multipole Moments
 -----------------------------------------------------------------
    Charge (ESU x 10^10)
                -0.0000
    Dipole Moment (Debye)
         X      -0.0047      Y       0.0665      Z      -0.0615
       Tot       0.0907
    Quadrupole Moments (Debye-Ang)
        XX    -246.4045     XY      -2.4508     YY    -300.6085
        XZ      -8.2950     YZ       2.6488     ZZ    -235.7922

 Total job time:  13615.37s(wall), 94809.46s(cpu)
        *  Thank you very much for using Q-Chem.  Have a nice day.  *
