 Q-Chem 5.1, Q-Chem, Inc., Pleasanton, CA (2018)
 Q-Chem 5.1.1 for Intel X86 EM64T Linux

User input:
--------------------------------------------------------------
$rem
threads 8
jobtype	opt
method PBEh-3c
basis def2-mSVP
mem_static	512
mem_total	6096
sym_ignore	true
solvent_method  pcm
$end

$pcm
theory iefpcm
$end
$solvent
dielectric 36
$end

$molecule
read gsopt.mol
$end

--------------------------------------------------------------

   14   -1973.7228946504      7.05e-09  Convergence criterion met
 Total energy in the final basis set =    -1973.7228946504
   13   -1973.7297324850      5.66e-09  Convergence criterion met
 Total energy in the final basis set =    -1973.7297324850
   13   -1973.7302569249      5.47e-09  Convergence criterion met
 Total energy in the final basis set =    -1973.7302569249
   13   -1973.7303379547      5.27e-09  Convergence criterion met
 Total energy in the final basis set =    -1973.7303379547
   13   -1973.7303598118      5.19e-09  Convergence criterion met
 Total energy in the final basis set =    -1973.7303598118
   13   -1973.7303701251      5.23e-09  Convergence criterion met
 Total energy in the final basis set =    -1973.7303701251
   13   -1973.7303619202      5.11e-09  Convergence criterion met
 Total energy in the final basis set =    -1973.7303619202
   13   -1973.7303361615      5.10e-09  Convergence criterion met
 Total energy in the final basis set =    -1973.7303361615
   13   -1973.7303292971      5.10e-09  Convergence criterion met
 Total energy in the final basis set =    -1973.7303292971

             Standard Nuclear Orientation (Angstroms)
    I     Atom           X                Y                Z
 ----------------------------------------------------------------
    1      C      -0.0273594570    -0.2246595091     0.0754570481
    2      C      -0.0155481248    -0.1669045567     1.4727158683
    3      H       0.9270239443    -0.2089673576     2.0074841700
    4      C      -1.2063315943    -0.0566472208     2.1693148999
    5      C      -1.5007095789     0.0224956040     3.6022282781
    6      C      -0.7586175848     0.0220882607     4.7548460878
    7      H       0.3219710192    -0.0476927101     4.7405796607
    8      C      -1.4382849573     0.1158389701     5.9942907135
    9      H      -0.8520129215     0.1150565516     6.9038806943
   10      C      -2.8092967301     0.2071546349     6.0838404659
   11      H      -3.2839420011     0.2767328939     7.0549689444
   12      C      -2.9017202796     0.1165894926     3.7066717827
   13      C      -3.5978925517     0.2094698985     4.9070192420
   14      C      -5.0091205575     0.2943186602     4.8071089399
   15      H      -5.6121998243     0.3684343199     5.7037761551
   16      C      -5.6169640310     0.2826132275     3.5715717893
   17      H      -6.6958129126     0.3484668583     3.5153897881
   18      C      -4.8823593366     0.1872982535     2.3651044164
   19      H      -5.4068721385     0.1822277435     1.4172977075
   20      C      -3.5155607514     0.1030258039     2.4391639660
   21      C      -2.4322004542    -0.0084590928     1.4644138873
   22      C      -2.4540658160    -0.0713520989     0.0809633694
   23      H      -3.3996355594    -0.0380275510    -0.4499290512
   24      C      -1.2560901973    -0.1767213121    -0.6305005686
   25      B       1.3087078447    -0.3534632639    -0.7053698185
   26      C       1.3018653501    -0.3615565762    -2.2582615991
   27      C       2.5127850569    -0.4207593616    -2.9546857687
   28      H       3.4501586831    -0.4588035329    -2.4111640285
   29      C       2.5125985041    -0.4310798246    -4.3373743484
   30      C       3.6025387315    -0.4851847655    -5.3149955906
   31      C       4.9712388355    -0.5402295587    -5.2548748618
   32      H       5.5035978979    -0.5517804899    -4.3119598958
   33      C       5.6994029224    -0.5831935495    -6.4692409022
   34      H       6.7796086702    -0.6261383316    -6.4204730857
   35      C       5.0869297342    -0.5730811774    -7.7024141714
   36      H       5.6862407754    -0.6079480755    -8.6040582452
   37      C       2.9877215570    -0.4754798658    -6.5817481683
   38      C       3.6745708193    -0.5178717406    -7.7914298328
   39      C       2.8807023670    -0.5021120934    -8.9654344350
   40      H       3.3532522801    -0.5334070923    -9.9396729292
   41      C       1.5084039384    -0.4473972517    -8.8703378407
   42      H       0.9177514850    -0.4361326306    -9.7772684522
   43      C       0.8354351870    -0.4053811994    -7.6251625871
   44      H      -0.2467845804    -0.3635209729    -7.6034571150
   45      C       1.5847951231    -0.4196986508    -6.4761690489
   46      C       1.2880757309    -0.3913830478    -5.0447873195
   47      C       0.0839274227    -0.3393657355    -4.3643001618
   48      H      -0.8498693921    -0.3141323264    -4.9160957024
   49      C       0.0756442975    -0.3186154731    -2.9666990445
   50      B      -1.2722451414    -0.2495721198    -2.1884572916
   51      C      -2.6329476129    -0.2611958189    -2.9759763765
   52      C      -3.2273862370     0.9328412137    -3.3974158783
   53      C      -4.4231406211     0.8988686247    -4.1108185278
   54      H      -4.8734826507     1.8327546343    -4.4314464432
   55      C      -5.0507539667    -0.3009343995    -4.4216630343
   56      C      -4.4496723349    -1.4830786031    -3.9990125983
   57      H      -4.9227146005    -2.4324585405    -4.2305659822
   58      C      -3.2570882042    -1.4780059596    -3.2863038310
   59      C      -6.3371746204    -0.3338388825    -5.1959325280
   60      H      -6.7149291344     0.6696784699    -5.3883988947
   61      H      -7.1111372067    -0.8840688504    -4.6583829864
   62      H      -6.2069482915    -0.8289593196    -6.1601312026
   63      C      -2.5711015254     2.2492471738    -3.0883919342
   64      H      -3.1608695752     3.0898675375    -3.4529748019
   65      H      -1.5823116499     2.3184019593    -3.5483192705
   66      H      -2.4327997806     2.3859959727    -2.0134498979
   67      C      -2.6304236492    -2.7746579371    -2.8541571828
   68      H      -3.2406184496    -3.6320346594    -3.1371220474
   69      H      -2.4930782945    -2.8122140820    -1.7710309257
   70      H      -1.6447182010    -2.9104398561    -3.3057489140
   71      C       2.6672998818    -0.4953606004     0.0611047226
   72      C       3.1581333560    -1.7647963627     0.3787479038
   73      C       4.3746020009    -1.8868501888     1.0450149073
   74      H       4.7478014065    -2.8766108597     1.2878599948
   75      C       5.1205022145    -0.7705150216     1.4029301768
   76      C       4.6224951764     0.4880002410     1.0753269254
   77      H       5.1934998958     1.3717341890     1.3426834868
   78      C       3.4107282523     0.6381060871     0.4120012692
   79      C       6.4254910251    -0.9101117921     2.1326500426
   80      H       6.7331292520    -1.9527784858     2.2052321638
   81      H       7.2236371069    -0.3600292938     1.6321751186
   82      H       6.3550705084    -0.5161867008     3.1483305994
   83      C       2.8931771051     2.0054798615     0.0599223829
   84      H       3.5667509461     2.7925540295     0.3974439935
   85      H       2.7695619865     2.1185466015    -1.0200660332
   86      H       1.9159212814     2.1914386369     0.5118235164
   87      C       2.3744079195    -2.9899688128    -0.0067925078
   88      H       2.8690087376    -3.9052048721     0.3174594285
   89      H       2.2419819089    -3.0553022542    -1.0896627163
   90      H       1.3749504973    -2.9830821621     0.4348642891
 ----------------------------------------------------------------

   13   -1973.7303285150      5.13e-09  Convergence criterion met
 Total energy in the final basis set =    -1973.7303285150
 Final energy is   -1973.73032851496
 **  OPTIMIZATION CONVERGED  **

                    Orbital Energies (a.u.)
 --------------------------------------------------------------

 Alpha MOs
 -- Occupied --
-10.469 -10.469 -10.468 -10.468 -10.467 -10.467 -10.466 -10.466
-10.466 -10.466 -10.465 -10.465 -10.464 -10.464 -10.462 -10.462
-10.462 -10.462 -10.459 -10.459 -10.459 -10.459 -10.459 -10.458
-10.458 -10.458 -10.453 -10.453 -10.453 -10.453 -10.451 -10.451
-10.451 -10.451 -10.440 -10.440 -10.439 -10.439 -10.434 -10.434
-10.434 -10.434 -10.427 -10.427 -10.427 -10.427 -10.427 -10.426
-10.423 -10.421  -6.955  -6.951  -1.020  -1.020  -0.967  -0.963
 -0.960  -0.959  -0.935  -0.935  -0.913  -0.904  -0.875  -0.871
 -0.871  -0.871  -0.858  -0.857  -0.848  -0.848  -0.825  -0.816
 -0.814  -0.808  -0.781  -0.781  -0.761  -0.760  -0.759  -0.759
 -0.737  -0.729  -0.728  -0.722  -0.690  -0.683  -0.681  -0.668
 -0.655  -0.650  -0.642  -0.642  -0.642  -0.639  -0.595  -0.595
 -0.591  -0.588  -0.584  -0.577  -0.575  -0.555  -0.549  -0.545
 -0.543  -0.543  -0.529  -0.527  -0.521  -0.511  -0.505  -0.500
 -0.498  -0.497  -0.495  -0.490  -0.489  -0.487  -0.483  -0.481
 -0.481  -0.480  -0.476  -0.469  -0.467  -0.467  -0.466  -0.466
 -0.464  -0.461  -0.457  -0.457  -0.451  -0.450  -0.447  -0.447
 -0.445  -0.440  -0.435  -0.433  -0.431  -0.428  -0.416  -0.413
 -0.413  -0.403  -0.399  -0.398  -0.398  -0.394  -0.393  -0.391
 -0.386  -0.384  -0.383  -0.382  -0.381  -0.372  -0.357  -0.355
 -0.350  -0.341  -0.324  -0.319  -0.299  -0.298  -0.286  -0.277
 -0.277  -0.270  -0.267  -0.266  -0.262  -0.260

          Ground-State Mulliken Net Atomic Charges

     Atom                 Charge (a.u.)
  ----------------------------------------
      1 C                    -0.157555
      2 C                    -0.394026
      3 H                     0.250478
      4 C                     0.079358
      5 C                     0.177833
      6 C                    -0.395600
      7 H                     0.258203
      8 C                    -0.237515
      9 H                     0.263257
     10 C                    -0.350494
     11 H                     0.261326
     12 C                    -0.067571
     13 C                     0.214920
     14 C                    -0.348894
     15 H                     0.261117
     16 C                    -0.238638
     17 H                     0.263359
     18 C                    -0.391107
     19 H                     0.258165
     20 C                     0.172011
     21 C                     0.073592
     22 C                    -0.392187
     23 H                     0.249867
     24 C                    -0.158525
     25 B                     0.697304
     26 C                    -0.157683
     27 C                    -0.391916
     28 H                     0.251657
     29 C                     0.078978
     30 C                     0.179361
     31 C                    -0.396388
     32 H                     0.258151
     33 C                    -0.237251
     34 H                     0.263109
     35 C                    -0.350548
     36 H                     0.261311
     37 C                    -0.068924
     38 C                     0.213646
     39 C                    -0.348040
     40 H                     0.261106
     41 C                    -0.238736
     42 H                     0.263481
     43 C                    -0.391133
     44 H                     0.257941
     45 C                     0.173211
     46 C                     0.072869
     47 C                    -0.391725
     48 H                     0.250218
     49 C                    -0.158332
     50 B                     0.701190
     51 C                    -0.219720
     52 C                     0.049659
     53 C                    -0.373522
     54 H                     0.230931
     55 C                     0.106193
     56 C                    -0.365453
     57 H                     0.229533
     58 C                     0.043891
     59 C                    -0.723864
     60 H                     0.240532
     61 H                     0.240468
     62 H                     0.241379
     63 C                    -0.773074
     64 H                     0.254120
     65 H                     0.246339
     66 H                     0.246363
     67 C                    -0.774208
     68 H                     0.254798
     69 H                     0.246795
     70 H                     0.246714
     71 C                    -0.222244
     72 C                     0.046821
     73 C                    -0.377656
     74 H                     0.230860
     75 C                     0.106146
     76 C                    -0.365200
     77 H                     0.229164
     78 C                     0.054416
     79 C                    -0.723521
     80 H                     0.240307
     81 H                     0.239866
     82 H                     0.241488
     83 C                    -0.773359
     84 H                     0.254097
     85 H                     0.246626
     86 H                     0.246755
     87 C                    -0.776268
     88 H                     0.255070
     89 H                     0.247255
     90 H                     0.247268
  ----------------------------------------
  Sum of atomic charges =    -0.000000

                    Cartesian Multipole Moments
 -----------------------------------------------------------------
    Charge (ESU x 10^10)
                -0.0000
    Dipole Moment (Debye)
         X      -0.0032      Y       0.0763      Z      -0.0656
       Tot       0.1007
    Quadrupole Moments (Debye-Ang)
        XX    -245.4935     XY      -2.4377     YY    -300.5150
        XZ      -8.4635     YZ       2.6921     ZZ    -234.6967

 Total job time:  16030.12s(wall), 107972.44s(cpu)
        *  Thank you very much for using Q-Chem.  Have a nice day.  *
