 Q-Chem 5.1, Q-Chem, Inc., Pleasanton, CA (2018)
 Q-Chem 5.1.1 for Intel X86 EM64T Linux

User input:
--------------------------------------------------------------
$rem
threads 8
jobtype sp
method PBEh-3c
basis def2-mSVP
mem_static      1024
mem_total       8000
sym_ignore      true
unrestricted true
scf_algorithm	diis
scf_max_cycles	250
solvent_method  pcm
make_cube_files	true
$end

$pcm
theory  iefpcm
$end

$solvent
dielectric      2.38
$end

$plots
triplet state dens for utleopt_tol.out
253 -9.79 10.01
135 -6.59 5.87
271 -11.94 9.03
0 1 0 0
0
$end

$molecule
0 3
C        -0.0092362327   -0.3555775946    0.0322759517
C        -0.0036577663   -0.3694058964    1.4397631282
H         0.9425467478   -0.4014262591    1.9683587677
C        -1.1874085828   -0.3399361797    2.1398319358
C        -1.4846428139   -0.3443261013    3.5743229770
C        -0.7436021556   -0.3780957242    4.7261238901
H         0.3385935133   -0.4108246281    4.7096976811
C        -1.4252974036   -0.3701443374    5.9671058089
H        -0.8390595865   -0.3970465417    6.8763631467
C        -2.7975943886   -0.3302808435    6.0602146384
H        -3.2721473056   -0.3259159222    7.0338370918
C        -2.8884689556   -0.3038979957    3.6830588522
C        -3.5873029948   -0.2954237022    4.8854915183
C        -3.5037690548   -0.2738528725    2.4168851412
C        -4.8720259786   -0.2321314587    2.3457229305
H        -5.3955495152   -0.2064721727    1.3977705920
C        -5.6083286979   -0.2224350762    3.5533899228
H        -6.6889244359   -0.1897060180    3.5001504639
C        -5.0001736252   -0.2529452299    4.7874334635
H        -5.6057809602   -0.2440860704    5.6854336233
C        -2.4226797909   -0.2969104113    1.4360265568
C        -2.4477114358   -0.2866075155    0.0600243758
H        -3.3946013216   -0.2597376715   -0.4685434821
C        -1.2480259094   -0.3124536323   -0.6707334480
B         1.3341287919   -0.3912390740   -0.7293116261
B        -1.2989681096   -0.3014962835   -2.2206304643
C         1.3222203180   -0.3453362647   -2.2670261714
C         2.5230314940   -0.3710881705   -2.9695019644
H         3.4593810805   -0.4250683723   -2.4259568953
C         2.5276520795   -0.3325431696   -4.3505586840
C         3.5731784567   -0.3468640484   -5.3190159694
C         4.9601140716   -0.4011752447   -5.2773080520
H         5.4983504714   -0.4440340658   -4.3396633544
C         5.6602827030   -0.4027739614   -6.4919732305
H         6.7413493503   -0.4456218698   -6.4655081544
C         5.0285188333   -0.3536848437   -7.7247075035
H         5.6203395096   -0.3588248082   -8.6315465106
C         2.9382356981   -0.2968585925   -6.5855907933
C         3.6165752309   -0.2989856719   -7.8035529085
C         1.5216418406   -0.2509137142   -6.4729124672
C         0.7584425095   -0.2025896166   -7.6374428822
H        -0.3227395557   -0.1657603868   -7.6055933092
C         1.4268457472   -0.2027786168   -8.8665845055
H         0.8410937784   -0.1652982880   -9.7760646823
C         2.8101677438   -0.2495245158   -8.9677685566
H         3.2745703959   -0.2486476956   -9.9460687420
C         1.2302017925   -0.2734498010   -5.0882952989
C         0.0303727424   -0.2615411094   -4.3853015185
H        -0.9098396478   -0.2295104553   -4.9253307309
C         0.0286256030   -0.2979642182   -3.0018547292
C         2.7039210260   -0.4997188831    0.0352213963
C         3.5059282346    0.6252460490    0.2488006875
C         4.7224373392    0.5164305472    0.9219480161
H         5.3131241213    1.4119603507    1.0726151398
C         5.1562099637   -0.7183476306    1.3862988525
O         6.3168530872   -0.9222178315    2.0450716265
C         4.3644786425   -1.8436436816    1.1744053280
H         4.7099209190   -2.8058550071    1.5365821106
C         3.1526229303   -1.7439380862    0.5107557286
C         7.1485938210    0.1837408722    2.2913242006
H         8.0171012533   -0.1931984592    2.8272006370
H         7.4897476375    0.6593730275    1.3665419738
H         6.6586121133    0.9406171247    2.9116757478
C         3.0477837673    1.9934814522   -0.1887444809
H         2.4813776828    1.9244991293   -1.1210836718
H         3.9169107326    2.6175313288   -0.4124860341
C         2.3600622435   -3.0036613146    0.2630237789
H         1.2886003132   -2.7893808070    0.2767464636
H         2.5344577618   -3.7090233890    1.0792820445
C         2.1880050243    2.6856924015    0.8668725993
H         1.2797337394    2.1186596104    1.0717089434
H         1.8884010400    3.6805461354    0.5350601995
H         2.7308290243    2.7932172729    1.8066496981
C         2.7209863423   -3.6733252313   -1.0619838996
H         2.5089057126   -3.0201066398   -1.9086547945
H         3.7808324039   -3.9279704656   -1.0978314058
H         2.1500431738   -4.5921351385   -1.2026368521
C        -2.6736891276   -0.3142500763   -2.9956254373
C        -3.1975239441   -1.5128726379   -3.4903339614
C        -4.4073255864   -1.5369018924   -4.1834874824
H        -4.7757479743   -2.4895096734   -4.5454896822
C        -5.1183982178   -0.3645586850   -4.3935288265
O        -6.2963174971   -0.2901639706   -5.0492531725
C        -4.6073659308    0.8341562720   -3.9050946265
H        -5.1639572637    1.7499981432   -4.0722876107
C        -3.4050178704    0.8660453057   -3.2170584737
C        -6.8611400595   -1.4769177280   -5.5497052602
H        -7.7964297369   -1.1978791779   -6.0302883722
H        -7.0792775368   -2.1984627795   -4.7562392562
H        -6.2195326666   -1.9606521044   -6.2927548519
C        -2.8743746796    2.2048775957   -2.7742888466
H        -3.7072309823    2.8484368593   -2.4798735552
H        -2.2503584913    2.0942589646   -1.8839941723
C        -2.5133191785   -2.8327746673   -3.2364214908
H        -1.4388043031   -2.6874137275   -3.1030440176
H        -2.6220404788   -3.4767658715   -4.1133783686
C        -2.0711962389    2.8946017785   -3.8752027077
H        -1.2015139572    2.3015431172   -4.1590219674
H        -2.6783740692    3.0410218961   -4.7693051475
H        -1.7141290240    3.8714692487   -3.5470633030
C        -3.0810092375   -3.5462822942   -2.0113083382
H        -2.9520499537   -2.9432875135   -1.1120612122
H        -4.1477480202   -3.7413772882   -2.1289367850
H        -2.5812572113   -4.5016918121   -1.8468979802
$end

--------------------------------------------------------------

             Standard Nuclear Orientation (Angstroms)
    I     Atom           X                Y                Z
 ----------------------------------------------------------------
    1      C      -0.0092362327    -0.3555775946     0.0322759517
    2      C      -0.0036577663    -0.3694058964     1.4397631282
    3      H       0.9425467478    -0.4014262591     1.9683587677
    4      C      -1.1874085828    -0.3399361797     2.1398319358
    5      C      -1.4846428139    -0.3443261013     3.5743229770
    6      C      -0.7436021556    -0.3780957242     4.7261238901
    7      H       0.3385935133    -0.4108246281     4.7096976811
    8      C      -1.4252974036    -0.3701443374     5.9671058089
    9      H      -0.8390595865    -0.3970465417     6.8763631467
   10      C      -2.7975943886    -0.3302808435     6.0602146384
   11      H      -3.2721473056    -0.3259159222     7.0338370918
   12      C      -2.8884689556    -0.3038979957     3.6830588522
   13      C      -3.5873029948    -0.2954237022     4.8854915183
   14      C      -3.5037690548    -0.2738528725     2.4168851412
   15      C      -4.8720259786    -0.2321314587     2.3457229305
   16      H      -5.3955495152    -0.2064721727     1.3977705920
   17      C      -5.6083286979    -0.2224350762     3.5533899228
   18      H      -6.6889244359    -0.1897060180     3.5001504639
   19      C      -5.0001736252    -0.2529452299     4.7874334635
   20      H      -5.6057809602    -0.2440860704     5.6854336233
   21      C      -2.4226797909    -0.2969104113     1.4360265568
   22      C      -2.4477114358    -0.2866075155     0.0600243758
   23      H      -3.3946013216    -0.2597376715    -0.4685434821
   24      C      -1.2480259094    -0.3124536323    -0.6707334480
   25      B       1.3341287919    -0.3912390740    -0.7293116261
   26      B      -1.2989681096    -0.3014962835    -2.2206304643
   27      C       1.3222203180    -0.3453362647    -2.2670261714
   28      C       2.5230314940    -0.3710881705    -2.9695019644
   29      H       3.4593810805    -0.4250683723    -2.4259568953
   30      C       2.5276520795    -0.3325431696    -4.3505586840
   31      C       3.5731784567    -0.3468640484    -5.3190159694
   32      C       4.9601140716    -0.4011752447    -5.2773080520
   33      H       5.4983504714    -0.4440340658    -4.3396633544
   34      C       5.6602827030    -0.4027739614    -6.4919732305
   35      H       6.7413493503    -0.4456218698    -6.4655081544
   36      C       5.0285188333    -0.3536848437    -7.7247075035
   37      H       5.6203395096    -0.3588248082    -8.6315465106
   38      C       2.9382356981    -0.2968585925    -6.5855907933
   39      C       3.6165752309    -0.2989856719    -7.8035529085
   40      C       1.5216418406    -0.2509137142    -6.4729124672
   41      C       0.7584425095    -0.2025896166    -7.6374428822
   42      H      -0.3227395557    -0.1657603868    -7.6055933092
   43      C       1.4268457472    -0.2027786168    -8.8665845055
   44      H       0.8410937784    -0.1652982880    -9.7760646823
   45      C       2.8101677438    -0.2495245158    -8.9677685566
   46      H       3.2745703959    -0.2486476956    -9.9460687420
   47      C       1.2302017925    -0.2734498010    -5.0882952989
   48      C       0.0303727424    -0.2615411094    -4.3853015185
   49      H      -0.9098396478    -0.2295104553    -4.9253307309
   50      C       0.0286256030    -0.2979642182    -3.0018547292
   51      C       2.7039210260    -0.4997188831     0.0352213963
   52      C       3.5059282346     0.6252460490     0.2488006875
   53      C       4.7224373392     0.5164305472     0.9219480161
   54      H       5.3131241213     1.4119603507     1.0726151398
   55      C       5.1562099637    -0.7183476306     1.3862988525
   56      O       6.3168530872    -0.9222178315     2.0450716265
   57      C       4.3644786425    -1.8436436816     1.1744053280
   58      H       4.7099209190    -2.8058550071     1.5365821106
   59      C       3.1526229303    -1.7439380862     0.5107557286
   60      C       7.1485938210     0.1837408722     2.2913242006
   61      H       8.0171012533    -0.1931984592     2.8272006370
   62      H       7.4897476375     0.6593730275     1.3665419738
   63      H       6.6586121133     0.9406171247     2.9116757478
   64      C       3.0477837673     1.9934814522    -0.1887444809
   65      H       2.4813776828     1.9244991293    -1.1210836718
   66      H       3.9169107326     2.6175313288    -0.4124860341
   67      C       2.3600622435    -3.0036613146     0.2630237789
   68      H       1.2886003132    -2.7893808070     0.2767464636
   69      H       2.5344577618    -3.7090233890     1.0792820445
   70      C       2.1880050243     2.6856924015     0.8668725993
   71      H       1.2797337394     2.1186596104     1.0717089434
   72      H       1.8884010400     3.6805461354     0.5350601995
   73      H       2.7308290243     2.7932172729     1.8066496981
   74      C       2.7209863423    -3.6733252313    -1.0619838996
   75      H       2.5089057126    -3.0201066398    -1.9086547945
   76      H       3.7808324039    -3.9279704656    -1.0978314058
   77      H       2.1500431738    -4.5921351385    -1.2026368521
   78      C      -2.6736891276    -0.3142500763    -2.9956254373
   79      C      -3.1975239441    -1.5128726379    -3.4903339614
   80      C      -4.4073255864    -1.5369018924    -4.1834874824
   81      H      -4.7757479743    -2.4895096734    -4.5454896822
   82      C      -5.1183982178    -0.3645586850    -4.3935288265
   83      O      -6.2963174971    -0.2901639706    -5.0492531725
   84      C      -4.6073659308     0.8341562720    -3.9050946265
   85      H      -5.1639572637     1.7499981432    -4.0722876107
   86      C      -3.4050178704     0.8660453057    -3.2170584737
   87      C      -6.8611400595    -1.4769177280    -5.5497052602
   88      H      -7.7964297369    -1.1978791779    -6.0302883722
   89      H      -7.0792775368    -2.1984627795    -4.7562392562
   90      H      -6.2195326666    -1.9606521044    -6.2927548519
   91      C      -2.8743746796     2.2048775957    -2.7742888466
   92      H      -3.7072309823     2.8484368593    -2.4798735552
   93      H      -2.2503584913     2.0942589646    -1.8839941723
   94      C      -2.5133191785    -2.8327746673    -3.2364214908
   95      H      -1.4388043031    -2.6874137275    -3.1030440176
   96      H      -2.6220404788    -3.4767658715    -4.1133783686
   97      C      -2.0711962389     2.8946017785    -3.8752027077
   98      H      -1.2015139572     2.3015431172    -4.1590219674
   99      H      -2.6783740692     3.0410218961    -4.7693051475
  100      H      -1.7141290240     3.8714692487    -3.5470633030
  101      C      -3.0810092375    -3.5462822942    -2.0113083382
  102      H      -2.9520499537    -2.9432875135    -1.1120612122
  103      H      -4.1477480202    -3.7413772882    -2.1289367850
  104      H      -2.5812572113    -4.5016918121    -1.8468979802
 ----------------------------------------------------------------

    9   -2280.6512421185      9.47e-06  Convergence criterion met
 Total energy in the final basis set =    -2280.6512421185

                    Orbital Energies (a.u.)
 --------------------------------------------------------------

 Alpha MOs
 -- Occupied --
-19.523 -19.523 -10.499 -10.499 -10.484 -10.484 -10.483 -10.483
-10.470 -10.469 -10.468 -10.466 -10.466 -10.466 -10.463 -10.462
-10.461 -10.461 -10.461 -10.460 -10.460 -10.460 -10.459 -10.459
-10.459 -10.458 -10.457 -10.457 -10.457 -10.455 -10.455 -10.451
-10.448 -10.447 -10.447 -10.446 -10.446 -10.446 -10.446 -10.446
-10.432 -10.431 -10.430 -10.430 -10.430 -10.430 -10.429 -10.428
-10.426 -10.426 -10.417 -10.417 -10.416 -10.416 -10.413 -10.412
 -6.932  -6.930  -1.179  -1.179  -1.026  -1.013  -0.967  -0.957
 -0.951  -0.950  -0.937  -0.929  -0.912  -0.898  -0.885  -0.884
 -0.871  -0.860  -0.860  -0.852  -0.850  -0.843  -0.824  -0.820
 -0.815  -0.815  -0.809  -0.804  -0.798  -0.797  -0.771  -0.770
 -0.743  -0.735  -0.724  -0.719  -0.708  -0.707  -0.700  -0.699
 -0.690  -0.686  -0.678  -0.667  -0.654  -0.646  -0.644  -0.641
 -0.627  -0.626  -0.601  -0.591  -0.591  -0.587  -0.582  -0.580
 -0.580  -0.574  -0.574  -0.559  -0.559  -0.544  -0.542  -0.534
 -0.531  -0.531  -0.528  -0.521  -0.518  -0.506  -0.503  -0.503
 -0.502  -0.500  -0.499  -0.496  -0.496  -0.492  -0.488  -0.486
 -0.484  -0.482  -0.479  -0.479  -0.478  -0.477  -0.474  -0.464
 -0.460  -0.457  -0.455  -0.455  -0.452  -0.449  -0.444  -0.441
 -0.438  -0.432  -0.432  -0.428  -0.427  -0.426  -0.425  -0.414
 -0.410  -0.409  -0.406  -0.406  -0.404  -0.400  -0.399  -0.398
 -0.395  -0.393  -0.392  -0.389  -0.388  -0.384  -0.383  -0.378
 -0.376  -0.375  -0.360  -0.360  -0.358  -0.354  -0.351  -0.350
 -0.339  -0.338  -0.335  -0.314  -0.310  -0.295  -0.291  -0.275
 -0.272  -0.271  -0.263  -0.255  -0.248  -0.246  -0.180

 Beta MOs
 -- Occupied --
-19.523 -19.523 -10.499 -10.499 -10.484 -10.484 -10.477 -10.476
-10.471 -10.470 -10.468 -10.466 -10.463 -10.463 -10.462 -10.462
-10.462 -10.461 -10.461 -10.460 -10.460 -10.460 -10.459 -10.459
-10.459 -10.459 -10.458 -10.457 -10.457 -10.455 -10.455 -10.448
-10.447 -10.447 -10.446 -10.446 -10.445 -10.445 -10.445 -10.442
-10.432 -10.431 -10.430 -10.430 -10.430 -10.430 -10.429 -10.428
-10.426 -10.426 -10.417 -10.417 -10.416 -10.416 -10.413 -10.412
 -6.931  -6.929  -1.179  -1.179  -1.019  -1.012  -0.959  -0.955
 -0.951  -0.950  -0.933  -0.929  -0.906  -0.897  -0.884  -0.884
 -0.867  -0.860  -0.860  -0.850  -0.848  -0.842  -0.818  -0.818
 -0.814  -0.812  -0.808  -0.798  -0.797  -0.794  -0.770  -0.769
 -0.734  -0.732  -0.723  -0.717  -0.708  -0.707  -0.700  -0.699
 -0.687  -0.680  -0.676  -0.664  -0.653  -0.644  -0.643  -0.641
 -0.627  -0.626  -0.598  -0.589  -0.589  -0.586  -0.581  -0.580
 -0.580  -0.573  -0.573  -0.559  -0.558  -0.541  -0.540  -0.533
 -0.531  -0.531  -0.527  -0.520  -0.516  -0.506  -0.503  -0.501
 -0.500  -0.499  -0.496  -0.496  -0.490  -0.488  -0.485  -0.483
 -0.481  -0.480  -0.479  -0.479  -0.477  -0.477  -0.474  -0.463
 -0.459  -0.456  -0.455  -0.453  -0.451  -0.448  -0.442  -0.436
 -0.432  -0.431  -0.427  -0.426  -0.426  -0.423  -0.414  -0.413
 -0.410  -0.409  -0.405  -0.403  -0.399  -0.398  -0.397  -0.395
 -0.393  -0.392  -0.391  -0.388  -0.387  -0.384  -0.378  -0.377
 -0.373  -0.363  -0.359  -0.359  -0.353  -0.352  -0.351  -0.338
 -0.336  -0.333  -0.326  -0.311  -0.296  -0.291  -0.272  -0.271
 -0.265  -0.260  -0.253  -0.248  -0.246

          Ground-State Mulliken Net Atomic Charges

     Atom                 Charge (a.u.)    Spin (a.u.)
  --------------------------------------------------------
      1 C                    -0.140377       0.014738
      2 C                    -0.400875      -0.010291
      3 H                     0.243892       0.000476
      4 C                     0.095904       0.032324
      5 C                     0.190353      -0.026632
      6 C                    -0.392676       0.029014
      7 H                     0.237157      -0.001764
      8 C                    -0.218058      -0.022678
      9 H                     0.241267       0.001211
     10 C                    -0.345003       0.029022
     11 H                     0.236349      -0.001736
     12 C                    -0.065768       0.026241
     13 C                     0.236743      -0.021057
     14 C                     0.183056      -0.031376
     15 C                    -0.385981       0.034034
     16 H                     0.237327      -0.002070
     17 C                    -0.219705      -0.025304
     18 H                     0.241495       0.001363
     19 C                    -0.342521       0.033490
     20 H                     0.236077      -0.002043
     21 C                     0.089257       0.047946
     22 C                    -0.398043      -0.024305
     23 H                     0.240706       0.001249
     24 C                    -0.142464       0.026099
     25 B                     0.608224       0.168445
     26 B                     0.609924       0.168193
     27 C                    -0.135209       0.425215
     28 C                    -0.374761      -0.279309
     29 H                     0.254577       0.010760
     30 C                     0.084627       0.440516
     31 C                     0.199198      -0.179287
     32 C                    -0.384082       0.242390
     33 H                     0.238351      -0.013236
     34 C                    -0.216199      -0.152320
     35 H                     0.243801       0.006305
     36 C                    -0.351930       0.251154
     37 H                     0.238447      -0.013661
     38 C                    -0.069068       0.244787
     39 C                     0.241244      -0.159453
     40 C                     0.191933      -0.169463
     41 C                    -0.375361       0.274049
     42 H                     0.240224      -0.015492
     43 C                    -0.217150      -0.169598
     44 H                     0.246205       0.006852
     45 C                    -0.345441       0.306141
     46 H                     0.240965      -0.017327
     47 C                     0.076236       0.449862
     48 C                    -0.373490      -0.237266
     49 H                     0.253297       0.008376
     50 C                    -0.136394       0.316335
     51 C                    -0.219678      -0.018604
     52 C                     0.076521       0.003448
     53 C                    -0.438851      -0.000328
     54 H                     0.236130       0.000235
     55 C                     0.394455       0.000892
     56 O                    -0.462725       0.000004
     57 C                    -0.391951      -0.000960
     58 H                     0.227644       0.000304
     59 C                     0.072866       0.002650
     60 C                    -0.417981       0.000020
     61 H                     0.246528       0.000007
     62 H                     0.210975       0.000016
     63 H                     0.212035       0.000014
     64 C                    -0.545141       0.004546
     65 H                     0.250678      -0.001926
     66 H                     0.229305       0.000195
     67 C                    -0.550780       0.001209
     68 H                     0.257356      -0.001156
     69 H                     0.234475       0.000056
     70 C                    -0.651624      -0.000066
     71 H                     0.245010      -0.000193
     72 H                     0.221401      -0.000008
     73 H                     0.216370       0.000069
     74 C                    -0.651192       0.000430
     75 H                     0.237108      -0.000591
     76 H                     0.219406       0.000107
     77 H                     0.221457      -0.000038
     78 C                    -0.219858      -0.017993
     79 C                     0.065496       0.002485
     80 C                    -0.434492      -0.000313
     81 H                     0.236020       0.000201
     82 C                     0.393885       0.000415
     83 O                    -0.463468       0.000017
     84 C                    -0.386042      -0.000702
     85 H                     0.227191       0.000263
     86 C                     0.070810       0.002083
     87 C                    -0.417757      -0.000001
     88 H                     0.246502       0.000003
     89 H                     0.212291       0.000005
     90 H                     0.211075       0.000007
     91 C                    -0.547340       0.001609
     92 H                     0.233937       0.000146
     93 H                     0.254382      -0.001349
     94 C                    -0.548158       0.004607
     95 H                     0.255047      -0.002310
     96 H                     0.229969       0.000079
     97 C                    -0.650050      -0.000500
     98 H                     0.234838       0.000032
     99 H                     0.218756      -0.000001
    100 H                     0.221814       0.000005
    101 C                    -0.647500      -0.000146
    102 H                     0.240716      -0.000070
    103 H                     0.215077       0.000181
    104 H                     0.220783       0.000001
  --------------------------------------------------------
  Sum of atomic charges =    -0.000001

                    Cartesian Multipole Moments
 -----------------------------------------------------------------
    Charge (ESU x 10^10)
                -0.0000
    Dipole Moment (Debye)
         X       1.0953      Y      -0.0395      Z      -1.9942
       Tot       2.2755
    Quadrupole Moments (Debye-Ang)
        XX    -287.8482     XY      17.9528     YY    -338.0536
        XZ      -6.5334     YZ      11.1000     ZZ    -274.8650

 Total job time:  1539.98s(wall), 7658.79s(cpu)
        *  Thank you very much for using Q-Chem.  Have a nice day.  *
