 Q-Chem 5.0, Q-Chem, Inc., Pleasanton, CA (2017)
 Q-Chem 5.0.1 for Intel X86 EM64T Linux

User input:
--------------------------------------------------------------
$rem
threads 8
jobtype	opt
method PBEh-3c
basis def2-mSVP
mem_static	1024
mem_total	14000
sym_ignore	true
cis_n_roots             2
cis_singlets            false
cis_triplets		true
rpa                     false
cis_state_deriv         1
$end

$molecule
read gsopt.mol
$end

--------------------------------------------------------------

   15   -1973.6968027472      7.75E-09 Convergence criterion met
 Total energy in the final basis set = -1973.69680275
   12   -1973.6975356036      9.14E-09 Convergence criterion met
 Total energy in the final basis set = -1973.69753560
   12   -1973.6976378259      5.60E-09 Convergence criterion met
 Total energy in the final basis set = -1973.69763783
   11   -1973.6977061008      6.10E-09 Convergence criterion met
 Total energy in the final basis set = -1973.69770610
   11   -1973.6977470718      5.33E-09 Convergence criterion met
 Total energy in the final basis set = -1973.69774707
   10   -1973.6977687493      6.08E-09 Convergence criterion met
 Total energy in the final basis set = -1973.69776875
   10   -1973.6977589082      5.95E-09 Convergence criterion met
 Total energy in the final basis set = -1973.69775891
    9   -1973.6977482903      5.26E-09 Convergence criterion met
    8   -1973.6977497723      7.49E-09 Convergence criterion met
 Total energy in the final basis set = -1973.69774977
    9   -1973.6977565016      5.58E-09 Convergence criterion met
 Total energy in the final basis set = -1973.69775650
    9   -1973.6977650500      6.33E-09 Convergence criterion met
 Total energy in the final basis set = -1973.69776505
   10   -1973.6977712032      5.36E-09 Convergence criterion met
 Total energy in the final basis set = -1973.69777120
    9   -1973.6977686303      5.39E-09 Convergence criterion met
 Total energy in the final basis set = -1973.69776863
   10   -1973.6977502139      6.30E-09 Convergence criterion met
 Total energy in the final basis set = -1973.69775021

             Standard Nuclear Orientation (Angstroms)
    I     Atom           X                Y                Z
 ----------------------------------------------------------------
    1      C       0.0019703039    -0.2501928297     0.0613970880
    2      C       0.0063791263    -0.2040236387     1.4651190008
    3      H       0.9537341397    -0.2416221060     1.9915699518
    4      C      -1.1753078563    -0.1160110225     2.1586061260
    5      C      -1.4764623267    -0.0604355650     3.5762511704
    6      C      -0.7359661935    -0.0718522429     4.7339107313
    7      H       0.3445768273    -0.1321469912     4.7187623453
    8      C      -1.4185633761    -0.0036053166     5.9666206414
    9      H      -0.8370877238    -0.0130571153     6.8791562489
   10      C      -2.7911813253     0.0737482859     6.0542535263
   11      H      -3.2663424961     0.1237383712     7.0260443464
   12      C      -2.8823287920     0.0192264744     3.6781590545
   13      C      -3.5799985787     0.0869788596     4.8791557630
   14      C      -4.9907575073     0.1596036970     4.7767077038
   15      H      -5.5956660784     0.2143216224     5.6732406957
   16      C      -5.6011115142     0.1609533228     3.5407682776
   17      H      -6.6807337509     0.2173580565     3.4908292888
   18      C      -4.8734010302     0.0913802310     2.3364542449
   19      H      -5.3963284141     0.0953554928     1.3885285053
   20      C      -3.5009504686     0.0188485516     2.4067941279
   21      C      -2.4361275338    -0.0679220710     1.4351249662
   22      C      -2.4571977681    -0.1105905824     0.0589810084
   23      H      -3.3994344114    -0.0746140410    -0.4775370052
   24      C      -1.2612076556    -0.2014871965    -0.6627031333
   25      B       1.3282866480    -0.3589007572    -0.6997956919
   26      C       1.3052432998    -0.3906507428    -2.2322646821
   27      C       2.5156255841    -0.4644515985    -2.9394894563
   28      H       3.4494339874    -0.4983352098    -2.3896374679
   29      C       2.5136005232    -0.4938376046    -4.3111732830
   30      C       3.5846530999    -0.5639543909    -5.2868542285
   31      C       4.9566099643    -0.6257630969    -5.2316059412
   32      H       5.4896092399    -0.6309680583    -4.2896771732
   33      C       5.6752182194    -0.6834165908    -6.4441945870
   34      H       6.7554220931    -0.7315331962    -6.4019541672
   35      C       5.0580725438    -0.6813445390    -7.6757237559
   36      H       5.6558482879    -0.7273103941    -8.5775749744
   37      C       2.9628769833    -0.5631628705    -6.5542962256
   38      C       3.6471928227    -0.6198636624    -7.7646463087
   39      C       2.8495754527    -0.6096959606    -8.9349300219
   40      H       3.3192822457    -0.6517003994    -9.9098825115
   41      C       1.4763027608    -0.5461376162    -8.8405641797
   42      H       0.8889062839    -0.5392351291    -9.7495523615
   43      C       0.8042762074    -0.4896190593    -7.6030864967
   44      H      -0.2769537806    -0.4407567742    -7.5790183212
   45      C       1.5550895728    -0.4982598079    -6.4496469257
   46      C       1.2547084155    -0.4539847330    -5.0365432775
   47      C       0.0595015834    -0.3851184925    -4.3585151118
   48      H      -0.8787256758    -0.3580077114    -4.9026330188
   49      C       0.0450807199    -0.3466948018    -2.9584216524
   50      B      -1.2897786069    -0.2541901795    -2.2005664140
   51      C      -2.6532006121    -0.2147139383    -2.9921270794
   52      C      -3.2050824004     1.0017952863    -3.4074333254
   53      C      -4.3968669951     1.0177272583    -4.1257034644
   54      H      -4.8107899211     1.9696787127    -4.4418254820
   55      C      -5.0662886155    -0.1539052713    -4.4480123139
   56      C      -4.5105124730    -1.3587541629    -4.0338388720
   57      H      -5.0162040003    -2.2879040253    -4.2780064856
   58      C      -3.3229471197    -1.4033800021    -3.3162081975
   59      C      -6.3576867799    -0.1329005166    -5.2137462716
   60      H      -6.6136205741     0.8737806613    -5.5425311743
   61      H      -7.1870048900    -0.4991529017    -4.6056281900
   62      H      -6.3074130190    -0.7664303526    -6.1007335068
   63      C      -2.5047395028     2.2924509376    -3.0874792041
   64      H      -3.0669636045     3.1559552351    -3.4426454773
   65      H      -1.5147920211     2.3329467795    -3.5473110525
   66      H      -2.3591044405     2.4136744659    -2.0121161674
   67      C      -2.7486641604    -2.7275163180    -2.8953999640
   68      H      -3.3898490459    -3.5578293188    -3.1912425040
   69      H      -2.6179887099    -2.7814135664    -1.8126287191
   70      H      -1.7660430098    -2.8955001882    -3.3416201845
   71      C       2.6957942679    -0.4491919315     0.0699667518
   72      C       3.2239910661    -1.6948592385     0.4208341824
   73      C       4.4381750302    -1.7667952303     1.0957786819
   74      H       4.8378618487    -2.7396132869     1.3631738255
   75      C       5.1488266710    -0.6238213647     1.4334724614
   76      C       4.6175817884     0.6103133072     1.0746781545
   77      H       5.1613153513     1.5156085103     1.3259343877
   78      C       3.4075778758     0.7103342676     0.4011667752
   79      C       6.4502134039    -0.7093592726     2.1769984184
   80      H       6.8005317639    -1.7381934691     2.2545426486
   81      H       7.2325181556    -0.1304852021     1.6841602677
   82      H       6.3538217312    -0.3200174165     3.1922988910
   83      C       2.8553833798     2.0554759297     0.0190827280
   84      H       3.5120039825     2.8670226941     0.3319633894
   85      H       2.7200725274     2.1381329793    -1.0617511990
   86      H       1.8767453682     2.2288939551     0.4720671223
   87      C       2.4807499580    -2.9523852369     0.0618966669
   88      H       3.0013323731    -3.8439478094     0.4112153656
   89      H       2.3549617301    -3.0481006167    -1.0190331549
   90      H       1.4791451066    -2.9647572387     0.4974172497
 ----------------------------------------------------------------

    9   -1973.6977486016      4.56E-09 Convergence criterion met
 Total energy in the final basis set = -1973.69774860

         TDDFT/TDA Excitation Energies
 ---------------------------------------------------

 Excited state   1: excitation energy (eV) =    1.9841
 Total energy for state  1:                 -1973.62483421 au
    Multiplicity: Triplet
    Trans. Mom.:  0.0000 X   0.0000 Y   0.0000 Z
    Strength   :     0.0000000000
    D(167) --> V(  2) amplitude =  0.2587
    D(174) --> V(  1) amplitude =  0.9236

 Excited state   2: excitation energy (eV) =    2.3743
 Total energy for state  2:                 -1973.61049619 au
    Multiplicity: Triplet
    Trans. Mom.:  0.0000 X   0.0000 Y   0.0000 Z
    Strength   :     0.0000000000
    D(171) --> V(  2) amplitude =  0.4848
    D(173) --> V(  1) amplitude =  0.8036

 ---------------------------------------------------

 Final energy is   -1973.62483421004
 **  OPTIMIZATION CONVERGED  **

                    Orbital Energies (a.u.)
 --------------------------------------------------------------

 Alpha MOs
 -- Occupied --
-10.464 -10.464 -10.464 -10.464 -10.464 -10.463 -10.462 -10.462
-10.462 -10.462 -10.462 -10.461 -10.461 -10.461 -10.460 -10.459
-10.459 -10.459 -10.459 -10.459 -10.459 -10.459 -10.450 -10.450
-10.450 -10.450 -10.446 -10.446 -10.445 -10.445 -10.445 -10.445
-10.444 -10.444 -10.433 -10.432 -10.432 -10.431 -10.428 -10.428
-10.428 -10.428 -10.428 -10.428 -10.423 -10.423 -10.423 -10.422
-10.416 -10.414  -6.941  -6.938  -1.012  -1.012  -0.957  -0.954
 -0.953  -0.951  -0.933  -0.932  -0.903  -0.894  -0.870  -0.866
 -0.865  -0.865  -0.855  -0.854  -0.847  -0.846  -0.815  -0.812
 -0.811  -0.795  -0.778  -0.778  -0.756  -0.754  -0.754  -0.754
 -0.731  -0.729  -0.728  -0.717  -0.687  -0.681  -0.676  -0.665
 -0.647  -0.640  -0.636  -0.636  -0.636  -0.634  -0.596  -0.592
 -0.588  -0.588  -0.582  -0.575  -0.573  -0.549  -0.544  -0.541
 -0.538  -0.537  -0.526  -0.526  -0.519  -0.507  -0.500  -0.498
 -0.493  -0.492  -0.491  -0.485  -0.481  -0.481  -0.479  -0.478
 -0.478  -0.477  -0.474  -0.466  -0.464  -0.463  -0.462  -0.461
 -0.461  -0.459  -0.453  -0.453  -0.448  -0.447  -0.444  -0.443
 -0.442  -0.437  -0.432  -0.426  -0.423  -0.418  -0.414  -0.410
 -0.409  -0.399  -0.398  -0.394  -0.394  -0.393  -0.389  -0.385
 -0.379  -0.377  -0.376  -0.376  -0.373  -0.363  -0.351  -0.346
 -0.345  -0.331  -0.320  -0.314  -0.295  -0.294  -0.274  -0.269
 -0.269  -0.262  -0.260  -0.259  -0.253  -0.246

          Ground-State Mulliken Net Atomic Charges

     Atom                 Charge (a.u.)
  ----------------------------------------
      1 C                    -0.155015
      2 C                    -0.386290
      3 H                     0.235449
      4 C                     0.093115
      5 C                     0.204987
      6 C                    -0.376481
      7 H                     0.222109
      8 C                    -0.204449
      9 H                     0.226533
     10 C                    -0.333841
     11 H                     0.220501
     12 C                    -0.071653
     13 C                     0.250920
     14 C                    -0.332423
     15 H                     0.220290
     16 C                    -0.205377
     17 H                     0.226620
     18 C                    -0.370534
     19 H                     0.221991
     20 C                     0.197408
     21 C                     0.087589
     22 C                    -0.384187
     23 H                     0.233694
     24 C                    -0.153910
     25 B                     0.689657
     26 C                    -0.155274
     27 C                    -0.385270
     28 H                     0.237193
     29 C                     0.092668
     30 C                     0.206231
     31 C                    -0.377290
     32 H                     0.222423
     33 C                    -0.204271
     34 H                     0.226410
     35 C                    -0.333908
     36 H                     0.220423
     37 C                    -0.072532
     38 C                     0.249596
     39 C                    -0.331559
     40 H                     0.220182
     41 C                    -0.205539
     42 H                     0.226640
     43 C                    -0.370927
     44 H                     0.221991
     45 C                     0.198469
     46 C                     0.087206
     47 C                    -0.384382
     48 H                     0.234879
     49 C                    -0.153248
     50 B                     0.693285
     51 C                    -0.223140
     52 C                     0.060505
     53 C                    -0.342850
     54 H                     0.195901
     55 C                     0.130732
     56 C                    -0.337725
     57 H                     0.196214
     58 C                     0.060025
     59 C                    -0.709656
     60 H                     0.225777
     61 H                     0.230788
     62 H                     0.228686
     63 C                    -0.757886
     64 H                     0.233456
     65 H                     0.243349
     66 H                     0.243476
     67 C                    -0.757701
     68 H                     0.233399
     69 H                     0.243631
     70 H                     0.243266
     71 C                    -0.226745
     72 C                     0.063752
     73 C                    -0.345421
     74 H                     0.195804
     75 C                     0.130573
     76 C                    -0.339095
     77 H                     0.195871
     78 C                     0.065019
     79 C                    -0.709066
     80 H                     0.225650
     81 H                     0.227862
     82 H                     0.230915
     83 C                    -0.757997
     84 H                     0.233154
     85 H                     0.243738
     86 H                     0.243590
     87 C                    -0.760264
     88 H                     0.233692
     89 H                     0.244397
     90 H                     0.244222
  ----------------------------------------
  Sum of atomic charges =    -0.000000

                    Cartesian Multipole Moments
 -----------------------------------------------------------------
    Charge (ESU x 10^10)
                -0.0000
    Dipole Moment (Debye)
         X      -0.0399      Y       0.0015      Z      -0.0093
       Tot       0.0410
    Quadrupole Moments (Debye-Ang)
        XX    -261.2154     XY      -1.7008     YY    -303.1647
        XZ      -6.3392     YZ       1.8087     ZZ    -253.1776

 Total job time:  29849.16s(wall), 169580.78s(cpu)
        *  Thank you very much for using Q-Chem.  Have a nice day.  *
