 Q-Chem 5.0, Q-Chem, Inc., Pleasanton, CA (2017)
 Q-Chem 5.0.1 for Intel X86 EM64T Linux

User input:
--------------------------------------------------------------
$rem
threads 8
jobtype	opt
method PBEh-3c
basis def2-mSVP
mem_static	1024
mem_total	14000
sym_ignore	true
cis_n_roots             3
cis_singlets            false
cis_triplets		true
rpa                     false
cis_state_deriv         1
state_follow		true
$end

$molecule
read gsopt.mol
$end

--------------------------------------------------------------

   15   -1973.6968027472      7.75E-09 Convergence criterion met
 Total energy in the final basis set = -1973.69680275
   12   -1973.6975344444      9.14E-09 Convergence criterion met
 Total energy in the final basis set = -1973.69753444
   12   -1973.6976201517      5.58E-09 Convergence criterion met
 Total energy in the final basis set = -1973.69762015
   11   -1973.6977069147      6.10E-09 Convergence criterion met
 Total energy in the final basis set = -1973.69770691
   11   -1973.6977508625      5.31E-09 Convergence criterion met
 Total energy in the final basis set = -1973.69775086
   10   -1973.6977680855      6.80E-09 Convergence criterion met
 Total energy in the final basis set = -1973.69776809
   10   -1973.6977562333      6.28E-09 Convergence criterion met
 Total energy in the final basis set = -1973.69775623
    9   -1973.6977430296      5.92E-09 Convergence criterion met
    9   -1973.6977333872      5.13E-09 Convergence criterion met
 Total energy in the final basis set = -1973.69773339
    8   -1973.6977367856      7.85E-09 Convergence criterion met
 Total energy in the final basis set = -1973.69773679
    8   -1973.6977413366      7.48E-09 Convergence criterion met
 Total energy in the final basis set = -1973.69774134
    9   -1973.6977462817      5.35E-09 Convergence criterion met
 Total energy in the final basis set = -1973.69774628
    9   -1973.6977518977      6.64E-09 Convergence criterion met
 Total energy in the final basis set = -1973.69775190
    9   -1973.6977598762      8.65E-09 Convergence criterion met
 Total energy in the final basis set = -1973.69775988

             Standard Nuclear Orientation (Angstroms)
    I     Atom           X                Y                Z
 ----------------------------------------------------------------
    1      C       0.0032166866    -0.2528626975     0.0608871661
    2      C       0.0073054503    -0.2104505841     1.4646437463
    3      H       0.9543249004    -0.2486918197     1.9915967598
    4      C      -1.1745315521    -0.1249800724     2.1581195762
    5      C      -1.4752814666    -0.0745889683     3.5755541288
    6      C      -0.7342523068    -0.0898136375     4.7330548167
    7      H       0.3462660389    -0.1500520787     4.7171443948
    8      C      -1.4164894288    -0.0255545326     5.9659572231
    9      H      -0.8349764441    -0.0380228902     6.8784308580
   10      C      -2.7891855435     0.0517278107     6.0541429178
   11      H      -3.2641671490     0.0986010961     7.0261773634
   12      C      -2.8812229028     0.0048761027     3.6778941148
   13      C      -3.5784027180     0.0689827081     4.8794489868
   14      C      -4.9891423198     0.1431393892     4.7775994489
   15      H      -5.5939740161     0.1949987819     5.6743417885
   16      C      -5.5999040550     0.1496063472     3.5415693776
   17      H      -6.6794914488     0.2073253717     3.4922968668
   18      C      -4.8730704301     0.0838445823     2.3370111508
   19      H      -5.3964377628     0.0919862282     1.3893531991
   20      C      -3.5001782491     0.0095114748     2.4062803387
   21      C      -2.4364882636    -0.0738150814     1.4345698941
   22      C      -2.4568475161    -0.1117234163     0.0579246651
   23      H      -3.3986453594    -0.0724085523    -0.4791550280
   24      C      -1.2612305845    -0.2021569656    -0.6633562163
   25      B       1.3292620939    -0.3598732234    -0.7012640414
   26      C       1.3045567869    -0.3954760190    -2.2334930774
   27      C       2.5148202386    -0.4712134236    -2.9413958998
   28      H       3.4489920448    -0.5031947530    -2.3920778930
   29      C       2.5114554086    -0.5045329717    -4.3129441886
   30      C       3.5830999525    -0.5748604792    -5.2890254606
   31      C       4.9549621252    -0.6323766676    -5.2335564737
   32      H       5.4879838954    -0.6345145699    -4.2916256211
   33      C       5.6738859596    -0.6895646309    -6.4462274870
   34      H       6.7542298575    -0.7343039350    -6.4040591099
   35      C       5.0566130460    -0.6907714319    -7.6775781156
   36      H       5.6544540036    -0.7359986766    -8.5794437401
   37      C       2.9611163804    -0.5773340794    -6.5562150447
   38      C       3.6456184559    -0.6333199614    -7.7665458795
   39      C       2.8479762403    -0.6254706644    -8.9367937264
   40      H       3.3174111679    -0.6671074507    -9.9118965408
   41      C       1.4747594799    -0.5643722732    -8.8421282856
   42      H       0.8870374472    -0.5590608660    -9.7509195561
   43      C       0.8027881186    -0.5080129955    -7.6043802070
   44      H      -0.2785433622    -0.4607052217    -7.5805454825
   45      C       1.5534733768    -0.5145547522    -6.4511997220
   46      C       1.2535488306    -0.4679085898    -5.0373359781
   47      C       0.0587443582    -0.3969796385    -4.3590096319
   48      H      -0.8800977697    -0.3719716365    -4.9021545343
   49      C       0.0453104416    -0.3532650781    -2.9587867849
   50      B      -1.2894113757    -0.2548325689    -2.2011257496
   51      C      -2.6526155510    -0.2087551191    -2.9927527041
   52      C      -3.1942586864     1.0108480580    -3.4124031602
   53      C      -4.3866983451     1.0343421857    -4.1295560918
   54      H      -4.7929362354     1.9886729054    -4.4484088736
   55      C      -5.0664153573    -0.1326290330    -4.4467124070
   56      C      -4.5208268894    -1.3406832564    -4.0280578320
   57      H      -5.0351498396    -2.2662831049    -4.2677044523
   58      C      -3.3330359590    -1.3928652220    -3.3115057821
   59      C      -6.3564746257    -0.1043854712    -5.2146202717
   60      H      -6.6244956909     0.9086283592    -5.5127265709
   61      H      -7.1821459858    -0.5006830778    -4.6207264371
   62      H      -6.2954552694    -0.7091293076    -6.1209351389
   63      C      -2.4830165355     2.2969120288    -3.0978253168
   64      H      -3.0396897510     3.1637172255    -3.4536839306
   65      H      -1.4941440154     2.3287128555    -3.5606038218
   66      H      -2.3334895838     2.4199241755    -2.0231898810
   67      C      -2.7694679644    -2.7202242641    -2.8861724401
   68      H      -3.4172832768    -3.5462925561    -3.1794329915
   69      H      -2.6392936706    -2.7716266389    -1.8032396267
   70      H      -1.7882020900    -2.8973888524    -3.3317591916
   71      C       2.6967132354    -0.4441779751     0.0691612120
   72      C       3.2314229157    -1.6861484739     0.4225688692
   73      C       4.4441947917    -1.7502465436     1.1009020089
   74      H       4.8487011232    -2.7204743309     1.3704151565
   75      C       5.1471744725    -0.6028328558     1.4394411689
   76      C       4.6096466056     0.6278271991     1.0777944091
   77      H       5.1472563139     1.5366184977     1.3295911156
   78      C       3.4010586417     0.7199781734     0.4007852199
   79      C       6.4472891649    -0.6799353429     2.1860606614
   80      H       6.7994263382    -1.7074454610     2.2723599659
   81      H       7.2294084492    -0.1036191141     1.6898860666
   82      H       6.3484193197    -0.2825225630     3.1979706207
   83      C       2.8421728877     2.0614830531     0.0156866262
   84      H       3.4942576066     2.8770557078     0.3275621807
   85      H       2.7073222317     2.1412220018    -1.0654109460
   86      H       1.8622747830     2.2307071221     0.4675978833
   87      C       2.4964796511    -2.9482671913     0.0626335177
   88      H       3.0194371446    -3.8364505758     0.4169576408
   89      H       2.3769938022    -3.0469965419    -1.0187235110
   90      H       1.4925106385    -2.9645667404     0.4925901662
 ----------------------------------------------------------------

    9   -1973.6977600178      8.23E-09 Convergence criterion met
 Total energy in the final basis set = -1973.69776002

         TDDFT/TDA Excitation Energies
 ---------------------------------------------------

 Excited state   1: excitation energy (eV) =    1.9841
 Total energy for state  1:                 -1973.62484711 au
    Multiplicity: Triplet
    Trans. Mom.:  0.0000 X   0.0000 Y   0.0000 Z
    Strength   :     0.0000000000
    D(167) --> V(  2) amplitude =  0.2585
    D(174) --> V(  1) amplitude =  0.9235

 Excited state   2: excitation energy (eV) =    2.3736
 Total energy for state  2:                 -1973.61053297 au
    Multiplicity: Triplet
    Trans. Mom.:  0.0000 X   0.0000 Y   0.0000 Z
    Strength   :     0.0000000000
    D(171) --> V(  2) amplitude =  0.4833
    D(173) --> V(  1) amplitude =  0.7994

 Excited state   3: excitation energy (eV) =    2.4309
 Total energy for state  3:                 -1973.60842777 au
    Multiplicity: Triplet
    Trans. Mom.:  0.0000 X   0.0000 Y   0.0000 Z
    Strength   :     0.0000000000
    D(171) --> V(  1) amplitude = -0.7150
    D(173) --> V(  2) amplitude = -0.5238

 ---------------------------------------------------

 Final energy is   -1973.62484711492
 **  OPTIMIZATION CONVERGED  **

                    Orbital Energies (a.u.)
 --------------------------------------------------------------

 Alpha MOs
 -- Occupied --
-10.465 -10.464 -10.464 -10.464 -10.464 -10.463 -10.462 -10.462
-10.462 -10.462 -10.462 -10.461 -10.461 -10.461 -10.460 -10.459
-10.459 -10.459 -10.459 -10.459 -10.459 -10.459 -10.450 -10.450
-10.450 -10.450 -10.446 -10.446 -10.445 -10.445 -10.445 -10.445
-10.444 -10.444 -10.433 -10.432 -10.432 -10.431 -10.428 -10.428
-10.428 -10.428 -10.428 -10.428 -10.423 -10.423 -10.423 -10.422
-10.416 -10.414  -6.941  -6.938  -1.012  -1.012  -0.957  -0.954
 -0.953  -0.951  -0.933  -0.932  -0.903  -0.894  -0.870  -0.866
 -0.865  -0.865  -0.855  -0.854  -0.847  -0.846  -0.815  -0.812
 -0.811  -0.795  -0.778  -0.778  -0.756  -0.754  -0.754  -0.754
 -0.731  -0.729  -0.728  -0.717  -0.687  -0.681  -0.676  -0.665
 -0.647  -0.640  -0.636  -0.636  -0.636  -0.634  -0.596  -0.592
 -0.588  -0.588  -0.582  -0.575  -0.573  -0.549  -0.544  -0.541
 -0.538  -0.537  -0.526  -0.526  -0.519  -0.507  -0.500  -0.498
 -0.493  -0.492  -0.491  -0.485  -0.481  -0.481  -0.479  -0.478
 -0.478  -0.477  -0.474  -0.466  -0.464  -0.463  -0.462  -0.461
 -0.461  -0.459  -0.453  -0.453  -0.448  -0.447  -0.444  -0.443
 -0.442  -0.437  -0.432  -0.426  -0.423  -0.418  -0.414  -0.410
 -0.409  -0.399  -0.398  -0.394  -0.394  -0.393  -0.389  -0.385
 -0.379  -0.377  -0.376  -0.376  -0.373  -0.363  -0.351  -0.346
 -0.345  -0.331  -0.320  -0.314  -0.295  -0.294  -0.274  -0.269
 -0.269  -0.262  -0.260  -0.259  -0.253  -0.246

          Ground-State Mulliken Net Atomic Charges

     Atom                 Charge (a.u.)
  ----------------------------------------
      1 C                    -0.155180
      2 C                    -0.385783
      3 H                     0.235483
      4 C                     0.092168
      5 C                     0.205092
      6 C                    -0.376035
      7 H                     0.222171
      8 C                    -0.204549
      9 H                     0.226554
     10 C                    -0.333719
     11 H                     0.220524
     12 C                    -0.072263
     13 C                     0.251097
     14 C                    -0.332575
     15 H                     0.220330
     16 C                    -0.205183
     17 H                     0.226644
     18 C                    -0.370318
     19 H                     0.222060
     20 C                     0.197586
     21 C                     0.087562
     22 C                    -0.384079
     23 H                     0.233787
     24 C                    -0.153868
     25 B                     0.689644
     26 C                    -0.155198
     27 C                    -0.385456
     28 H                     0.237137
     29 C                     0.092947
     30 C                     0.205793
     31 C                    -0.377433
     32 H                     0.222352
     33 C                    -0.204334
     34 H                     0.226393
     35 C                    -0.333932
     36 H                     0.220380
     37 C                    -0.072326
     38 C                     0.249697
     39 C                    -0.331712
     40 H                     0.220161
     41 C                    -0.205424
     42 H                     0.226616
     43 C                    -0.371435
     44 H                     0.221915
     45 C                     0.198605
     46 C                     0.088041
     47 C                    -0.384767
     48 H                     0.234944
     49 C                    -0.153279
     50 B                     0.693271
     51 C                    -0.223218
     52 C                     0.060405
     53 C                    -0.343113
     54 H                     0.195939
     55 C                     0.130714
     56 C                    -0.337437
     57 H                     0.196229
     58 C                     0.060094
     59 C                    -0.709751
     60 H                     0.225825
     61 H                     0.230385
     62 H                     0.229093
     63 C                    -0.758055
     64 H                     0.233507
     65 H                     0.243487
     66 H                     0.243469
     67 C                    -0.757396
     68 H                     0.233318
     69 H                     0.243669
     70 H                     0.243084
     71 C                    -0.226655
     72 C                     0.063719
     73 C                    -0.345222
     74 H                     0.195798
     75 C                     0.130534
     76 C                    -0.339279
     77 H                     0.195892
     78 C                     0.064991
     79 C                    -0.709098
     80 H                     0.225651
     81 H                     0.227966
     82 H                     0.230828
     83 C                    -0.758292
     84 H                     0.233227
     85 H                     0.243746
     86 H                     0.243764
     87 C                    -0.759990
     88 H                     0.233609
     89 H                     0.244316
     90 H                     0.244143
  ----------------------------------------
  Sum of atomic charges =    -0.000000

                    Cartesian Multipole Moments
 -----------------------------------------------------------------
    Charge (ESU x 10^10)
                -0.0000
    Dipole Moment (Debye)
         X      -0.0485      Y       0.0030      Z       0.0045
       Tot       0.0488
    Quadrupole Moments (Debye-Ang)
        XX    -261.2533     XY      -1.6206     YY    -303.1796
        XZ      -6.3044     YZ       1.7130     ZZ    -253.1678

 Total job time:  32052.67s(wall), 190369.73s(cpu)
        *  Thank you very much for using Q-Chem.  Have a nice day.  *
