 Q-Chem 5.0, Q-Chem, Inc., Pleasanton, CA (2017)
 Q-Chem 5.0.1 for Intel X86 EM64T Linux

User input:
--------------------------------------------------------------
$rem
threads 8
jobtype	opt
method PBEh-3c
basis def2-mSVP
mem_static	1024
mem_total	14000
sym_ignore	true
cis_n_roots             4
cis_singlets            false
cis_triplets		true
rpa                     false
cis_state_deriv         3
state_follow		true
$end

$molecule
read gsopt.mol
$end

--------------------------------------------------------------

   15   -1973.6968027474      7.75E-09 Convergence criterion met
 Total energy in the final basis set = -1973.69680275
   13   -1973.7003083305      6.67E-09 Convergence criterion met
 Total energy in the final basis set = -1973.70030833
   12   -1973.6968495101      9.11E-09 Convergence criterion met
 Total energy in the final basis set = -1973.69684951
   12   -1973.6908929218      8.86E-09 Convergence criterion met
 Total energy in the final basis set = -1973.69089292
   11   -1973.6940215063      7.23E-09 Convergence criterion met
 Total energy in the final basis set = -1973.69402151
   11   -1973.6945351230      5.99E-09 Convergence criterion met
 Total energy in the final basis set = -1973.69453512
   11   -1973.6946981216      8.79E-09 Convergence criterion met
 Total energy in the final basis set = -1973.69469812
   14   -1973.6809526447      5.36E-09 Convergence criterion met
    9   -1973.6977189649      5.77E-09 Convergence criterion met
 Total energy in the final basis set = -1973.69771896
    8   -1973.6977307870      7.47E-09 Convergence criterion met
 Total energy in the final basis set = -1973.69773079
    9   -1973.6977459973      4.96E-09 Convergence criterion met
 Total energy in the final basis set = -1973.69774600
    9   -1973.6977589063      5.13E-09 Convergence criterion met
 Total energy in the final basis set = -1973.69775891
    9   -1973.6977730512      6.43E-09 Convergence criterion met
 Total energy in the final basis set = -1973.69777305
    9   -1973.6977739201      5.99E-09 Convergence criterion met
 Total energy in the final basis set = -1973.69777392

             Standard Nuclear Orientation (Angstroms)
    I     Atom           X                Y                Z
 ----------------------------------------------------------------
    1      C       0.0031593419    -0.2504796088     0.0604545945
    2      C       0.0076900708    -0.2060214291     1.4639208700
    3      H       0.9551855681    -0.2409965012     1.9902415683
    4      C      -1.1741978964    -0.1230249490     2.1579032824
    5      C      -1.4751400408    -0.0711753637     3.5749923370
    6      C      -0.7342269872    -0.0824509325     4.7326325977
    7      H       0.3464706019    -0.1394673743     4.7171896512
    8      C      -1.4168875548    -0.0184551555     5.9653826258
    9      H      -0.8352795993    -0.0278000079     6.8778312999
   10      C      -2.7897745682     0.0546825459     6.0533460369
   11      H      -3.2649510015     0.1015310742     7.0252853822
   12      C      -2.8815067283     0.0040473205     3.6771834693
   13      C      -3.5790177937     0.0676998119     4.8784626105
   14      C      -4.9900448910     0.1367260280     4.7764170769
   15      H      -5.5948748967     0.1881233812     5.6731977662
   16      C      -5.6008526066     0.1387984123     3.5405385568
   17      H      -6.6806401436     0.1924386099     3.4911576505
   18      C      -4.8736731318     0.0735017310     2.3359899645
   19      H      -5.3969384318     0.0779109920     1.3882685000
   20      C      -3.5006681635     0.0044438454     2.4056376235
   21      C      -2.4365912182    -0.0771014067     1.4340498093
   22      C      -2.4572847621    -0.1163368913     0.0575679124
   23      H      -3.3995634138    -0.0809140376    -0.4788931929
   24      C      -1.2614582356    -0.2030198965    -0.6641536478
   25      B       1.3292307199    -0.3575499320    -0.7015085821
   26      C       1.3050446450    -0.3934975859    -2.2338801014
   27      C       2.5151226899    -0.4718536412    -2.9413207479
   28      H       3.4490647059    -0.5072868862    -2.3918119115
   29      C       2.5124095894    -0.5035281780    -4.3130673382
   30      C       3.5838760304    -0.5770120139    -5.2888700815
   31      C       4.9553911330    -0.6417718936    -5.2331993992
   32      H       5.4882347607    -0.6478123354    -4.2911688812
   33      C       5.6744357942    -0.7015235383    -6.4457048807
   34      H       6.7545099982    -0.7519353109    -6.4030364003
   35      C       5.0576129021    -0.6986400298    -7.6772164993
   36      H       5.6554347479    -0.7462332375    -8.5789721601
   37      C       2.9624025083    -0.5755488228    -6.5563536606
   38      C       3.6468475658    -0.6341916502    -7.7664455503
   39      C       2.8495455095    -0.6226337537    -8.9369879920
   40      H       3.3192194654    -0.6660217646    -9.9118960016
   41      C       1.4767149294    -0.5559251908    -8.8426147056
   42      H       0.8891778277    -0.5479637292    -9.7515122904
   43      C       0.8046779654    -0.4974057735    -7.6049115821
   44      H      -0.2764848145    -0.4461166572    -7.5812655016
   45      C       1.5548908403    -0.5073035853    -6.4516012003
   46      C       1.2548912997    -0.4612345070    -5.0375446149
   47      C       0.0600860813    -0.3883587157    -4.3595913548
   48      H      -0.8783084392    -0.3595903476    -4.9032544228
   49      C       0.0461141025    -0.3481467664    -2.9589217461
   50      B      -1.2891870668    -0.2529991223    -2.2019239015
   51      C      -2.6524664930    -0.2078751364    -2.9933148024
   52      C      -3.2005284010     1.0116682239    -3.4046846983
   53      C      -4.3933474201     1.0337838037    -4.1211562097
   54      H      -4.8042054388     1.9880266980    -4.4343273881
   55      C      -5.0674781432    -0.1345781840    -4.4453192060
   56      C      -4.5154293521    -1.3425307972    -4.0350477704
   57      H      -5.0248547514    -2.2691825734    -4.2809725965
   58      C      -3.3269263186    -1.3933331516    -3.3194750006
   59      C      -6.3597526829    -0.1072966480    -5.2094653520
   60      H      -6.6153051702     0.9018098063    -5.5309847872
   61      H      -7.1886098199    -0.4772889090    -4.6030023305
   62      H      -6.3107805232    -0.7347497408    -6.1008286306
   63      C      -2.4954160869     2.2990576700    -3.0819950217
   64      H      -3.0535609265     3.1652469555    -3.4370465037
   65      H      -1.5044939476     2.3361761497    -3.5399688002
   66      H      -2.3513355264     2.4183749134    -2.0061884824
   67      C      -2.7569334438    -2.7204768085    -2.9022506980
   68      H      -3.3978325835    -3.5482900950    -3.2056278031
   69      H      -2.6321815402    -2.7798053180    -1.8190258560
   70      H      -1.7721665869    -2.8878344485    -3.3439100295
   71      C       2.6967677088    -0.4419294102     0.0689292547
   72      C       3.2272579874    -1.6842625643     0.4279646109
   73      C       4.4401829710    -1.7493995546     1.1058240654
   74      H       4.8415749895    -2.7197351036     1.3796179748
   75      C       5.1474459070    -0.6028458291     1.4384704630
   76      C       4.6141649376     0.6279543834     1.0712520596
   77      H       5.1552515713     1.5359828596     1.3183028130
   78      C       3.4054153456     0.7211836975     0.3945727056
   79      C       6.4473162125    -0.6811105072     2.1854178630
   80      H       6.8005227860    -1.7085304519     2.2684031449
   81      H       7.2290351773    -0.1021308110     1.6917841569
   82      H       6.3473450412    -0.2874395021     3.1987042471
   83      C       2.8511432390     2.0626780719     0.0027741629
   84      H       3.5017745476     2.8780969245     0.3181035698
   85      H       2.7247804236     2.1404564723    -1.0795110240
   86      H       1.8680245679     2.2338313693     0.4468264495
   87      C       2.4871870866    -2.9454561662     0.0753795369
   88      H       3.0132784532    -3.8343425766     0.4232758078
   89      H       2.3554409581    -3.0435123614    -1.0046060309
   90      H       1.4881117917    -2.9610446059     0.5166557157
 ----------------------------------------------------------------

    9   -1973.6977579993      6.15E-09 Convergence criterion met
 Total energy in the final basis set = -1973.69775800

         TDDFT/TDA Excitation Energies
 ---------------------------------------------------

 Excited state   1: excitation energy (eV) =    1.9840
 Total energy for state  1:                 -1973.62484823 au
    Multiplicity: Triplet
    Trans. Mom.:  0.0000 X   0.0000 Y   0.0000 Z
    Strength   :     0.0000000000
    D(167) --> V(  2) amplitude =  0.2585
    D(174) --> V(  1) amplitude =  0.9236

 Excited state   2: excitation energy (eV) =    2.3740
 Total energy for state  2:                 -1973.61051465 au
    Multiplicity: Triplet
    Trans. Mom.:  0.0000 X   0.0000 Y   0.0000 Z
    Strength   :     0.0000000000
    D(171) --> V(  2) amplitude =  0.4831
    D(173) --> V(  1) amplitude =  0.7992

 Excited state   3: excitation energy (eV) =    2.4318
 Total energy for state  3:                 -1973.60839137 au
    Multiplicity: Triplet
    Trans. Mom.:  0.0000 X   0.0000 Y   0.0000 Z
    Strength   :     0.0000000000
    D(171) --> V(  1) amplitude =  0.7074
    D(173) --> V(  2) amplitude =  0.5167
    D(174) --> V(  2) amplitude = -0.2271

 Excited state   4: excitation energy (eV) =    2.4930
 Total energy for state  4:                 -1973.60614176 au
    Multiplicity: Triplet
    Trans. Mom.:  0.0000 X   0.0000 Y   0.0000 Z
    Strength   :     0.0000000000
    D(167) --> V(  1) amplitude = -0.7017
    D(173) --> V(  2) amplitude = -0.2233
    D(174) --> V(  2) amplitude = -0.5407

 ---------------------------------------------------

 Final energy is   -1973.62484822732
 **  OPTIMIZATION CONVERGED  **

                    Orbital Energies (a.u.)
 --------------------------------------------------------------

 Alpha MOs
 -- Occupied --
-10.465 -10.464 -10.464 -10.464 -10.464 -10.463 -10.462 -10.462
-10.462 -10.462 -10.462 -10.461 -10.461 -10.461 -10.460 -10.459
-10.459 -10.459 -10.459 -10.459 -10.459 -10.459 -10.450 -10.450
-10.450 -10.450 -10.446 -10.446 -10.445 -10.445 -10.445 -10.445
-10.444 -10.444 -10.433 -10.432 -10.432 -10.431 -10.428 -10.428
-10.428 -10.428 -10.428 -10.428 -10.423 -10.423 -10.423 -10.422
-10.416 -10.414  -6.941  -6.938  -1.012  -1.012  -0.957  -0.954
 -0.953  -0.951  -0.933  -0.932  -0.903  -0.894  -0.870  -0.866
 -0.865  -0.865  -0.855  -0.854  -0.847  -0.846  -0.815  -0.812
 -0.811  -0.795  -0.778  -0.778  -0.756  -0.754  -0.754  -0.754
 -0.731  -0.729  -0.728  -0.717  -0.687  -0.681  -0.676  -0.665
 -0.647  -0.640  -0.636  -0.636  -0.636  -0.634  -0.596  -0.592
 -0.588  -0.588  -0.582  -0.575  -0.573  -0.549  -0.544  -0.541
 -0.538  -0.537  -0.526  -0.526  -0.519  -0.507  -0.500  -0.498
 -0.493  -0.492  -0.491  -0.485  -0.481  -0.481  -0.479  -0.478
 -0.478  -0.477  -0.474  -0.466  -0.464  -0.463  -0.462  -0.461
 -0.461  -0.459  -0.453  -0.453  -0.448  -0.447  -0.444  -0.443
 -0.442  -0.437  -0.432  -0.426  -0.423  -0.418  -0.414  -0.410
 -0.409  -0.399  -0.398  -0.394  -0.394  -0.393  -0.389  -0.385
 -0.379  -0.377  -0.376  -0.376  -0.373  -0.363  -0.351  -0.346
 -0.345  -0.331  -0.320  -0.314  -0.295  -0.294  -0.274  -0.269
 -0.269  -0.262  -0.260  -0.259  -0.253  -0.246

          Ground-State Mulliken Net Atomic Charges

     Atom                 Charge (a.u.)
  ----------------------------------------
      1 C                    -0.155236
      2 C                    -0.385783
      3 H                     0.235524
      4 C                     0.092207
      5 C                     0.205321
      6 C                    -0.376108
      7 H                     0.222190
      8 C                    -0.204491
      9 H                     0.226563
     10 C                    -0.333693
     11 H                     0.220531
     12 C                    -0.072277
     13 C                     0.250845
     14 C                    -0.332391
     15 H                     0.220327
     16 C                    -0.205315
     17 H                     0.226647
     18 C                    -0.370223
     19 H                     0.222055
     20 C                     0.197729
     21 C                     0.087115
     22 C                    -0.383959
     23 H                     0.233702
     24 C                    -0.153825
     25 B                     0.689754
     26 C                    -0.155054
     27 C                    -0.385533
     28 H                     0.237140
     29 C                     0.093195
     30 C                     0.205964
     31 C                    -0.377597
     32 H                     0.222344
     33 C                    -0.204247
     34 H                     0.226384
     35 C                    -0.333978
     36 H                     0.220379
     37 C                    -0.072406
     38 C                     0.249650
     39 C                    -0.331643
     40 H                     0.220156
     41 C                    -0.205420
     42 H                     0.226605
     43 C                    -0.371540
     44 H                     0.221907
     45 C                     0.198636
     46 C                     0.087990
     47 C                    -0.384809
     48 H                     0.234935
     49 C                    -0.153366
     50 B                     0.693325
     51 C                    -0.223158
     52 C                     0.060455
     53 C                    -0.343021
     54 H                     0.195923
     55 C                     0.130699
     56 C                    -0.337603
     57 H                     0.196204
     58 C                     0.060126
     59 C                    -0.709651
     60 H                     0.225797
     61 H                     0.230714
     62 H                     0.228745
     63 C                    -0.758052
     64 H                     0.233495
     65 H                     0.243393
     66 H                     0.243521
     67 C                    -0.757551
     68 H                     0.233360
     69 H                     0.243492
     70 H                     0.243321
     71 C                    -0.226807
     72 C                     0.063802
     73 C                    -0.345264
     74 H                     0.195791
     75 C                     0.130533
     76 C                    -0.339237
     77 H                     0.195881
     78 C                     0.064979
     79 C                    -0.709041
     80 H                     0.225636
     81 H                     0.227875
     82 H                     0.230911
     83 C                    -0.758213
     84 H                     0.233206
     85 H                     0.243773
     86 H                     0.243694
     87 C                    -0.760113
     88 H                     0.233644
     89 H                     0.244351
     90 H                     0.244161
  ----------------------------------------
  Sum of atomic charges =    -0.000000

                    Cartesian Multipole Moments
 -----------------------------------------------------------------
    Charge (ESU x 10^10)
                -0.0000
    Dipole Moment (Debye)
         X      -0.0540      Y      -0.0046      Z       0.0151
       Tot       0.0563
    Quadrupole Moments (Debye-Ang)
        XX    -261.2266     XY      -1.6654     YY    -303.1683
        XZ      -6.3114     YZ       1.7512     ZZ    -253.2365

 Total job time:  54607.66s(wall), 323444.51s(cpu)
        *  Thank you very much for using Q-Chem.  Have a nice day.  *
