 Q-Chem 5.0, Q-Chem, Inc., Pleasanton, CA (2017)
 Q-Chem 5.0.1 for Intel X86 EM64T Linux

User input:
--------------------------------------------------------------
$rem
threads 8
jobtype	opt
method PBEh-3c
basis def2-mSVP
mem_static	1024
mem_total	14000
sym_ignore	true
cis_n_roots             5
cis_singlets            false
cis_triplets		true
rpa                     false
cis_state_deriv         4
state_follow		true
$end

$molecule
read gsopt.mol
$end

--------------------------------------------------------------

   15   -1973.6968027475      7.75E-09 Convergence criterion met
 Total energy in the final basis set = -1973.69680275
   13   -1973.6987025732      7.43E-09 Convergence criterion met
 Total energy in the final basis set = -1973.69870257
   12   -1973.6982836993      9.40E-09 Convergence criterion met
 Total energy in the final basis set = -1973.69828370
   11   -1973.6992896512      8.24E-09 Convergence criterion met
 Total energy in the final basis set = -1973.69928965
   11   -1973.6985140858      7.36E-09 Convergence criterion met
 Total energy in the final basis set = -1973.69851409
   11   -1973.6984032385      6.15E-09 Convergence criterion met
 Total energy in the final basis set = -1973.69840324
   10   -1973.6985084720      8.70E-09 Convergence criterion met
 Total energy in the final basis set = -1973.69850847
   10   -1973.6985362884      6.90E-09 Convergence criterion met
 Total energy in the final basis set = -1973.69853629
   10   -1973.6985063324      7.02E-09 Convergence criterion met
 Total energy in the final basis set = -1973.69850633
    9   -1973.6985308485      9.08E-09 Convergence criterion met
 Total energy in the final basis set = -1973.69853085
    9   -1973.6985267210      6.36E-09 Convergence criterion met
 Total energy in the final basis set = -1973.69852672

             Standard Nuclear Orientation (Angstroms)
    I     Atom           X                Y                Z
 ----------------------------------------------------------------
    1      C      -0.0115830905    -0.2409188353     0.0763228191
    2      C       0.0026987718    -0.1933161843     1.4647282067
    3      H       0.9500261855    -0.2323698037     1.9914090671
    4      C      -1.1893492504    -0.0993018887     2.1735823958
    5      C      -1.4803883197    -0.0394636313     3.5805969852
    6      C      -0.7345435009    -0.0483150874     4.7437340220
    7      H       0.3457471055    -0.1103774427     4.7266845979
    8      C      -1.4148666941     0.0249155060     5.9713377339
    9      H      -0.8344367009     0.0177007384     6.8846336774
   10      C      -2.7917842628     0.1051137835     6.0613998747
   11      H      -3.2636460981     0.1590147839     7.0344919328
   12      C      -2.8908647374     0.0432212475     3.6876421709
   13      C      -3.5855470262     0.1159287639     4.8873905907
   14      C      -4.9971028209     0.1906331143     4.7856306898
   15      H      -5.6015857207     0.2493253929     5.6820876913
   16      C      -5.6096023281     0.1889643921     3.5475168445
   17      H      -6.6893121397     0.2471121141     3.5002481958
   18      C      -4.8864647171     0.1145694314     2.3447588492
   19      H      -5.4102306180     0.1164017013     1.3973637704
   20      C      -3.5092797813     0.0396595574     2.4142107237
   21      C      -2.4449131348    -0.0514279779     1.4525376150
   22      C      -2.4581126895    -0.0999485014     0.0635798624
   23      H      -3.3997095825    -0.0658019514    -0.4744006318
   24      C      -1.2658718862    -0.1934254933    -0.6430638400
   25      B       1.3224246566    -0.3557695889    -0.7020432365
   26      C       1.3113317869    -0.3858592605    -2.2503619746
   27      C       2.5141599955    -0.4576235997    -2.9410482635
   28      H       3.4478704678    -0.4951327344    -2.3910094526
   29      C       2.5208844211    -0.4819099428    -4.3294306494
   30      C       3.5884205534    -0.5473371560    -5.2910846389
   31      C       4.9676739048    -0.6093281900    -5.2337671219
   32      H       5.4985299963    -0.6179223446    -4.2908070548
   33      C       5.6834418603    -0.6622442390    -6.4421024471
   34      H       6.7637579118    -0.7102988194    -6.4010821628
   35      C       5.0666572091    -0.6560940892    -7.6788425131
   36      H       5.6674917101    -0.6988895492    -8.5787052034
   37      C       2.9691367004    -0.5423425309    -6.5652547556
   38      C       3.6543559111    -0.5947440369    -7.7726486639
   39      C       2.8570947676    -0.5811786661    -8.9443507616
   40      H       3.3272055632    -0.6198600562    -9.9191385047
   41      C       1.4805308720    -0.5185256809    -8.8509573237
   42      H       0.8959823276    -0.5091879943    -9.7618306122
   43      C       0.8069201157    -0.4663994260    -7.6184980595
   44      H      -0.2742815995    -0.4183712269    -7.5956088803
   45      C       1.5590256292    -0.4783282283    -6.4595724770
   46      C       1.2663981178    -0.4397187866    -5.0527707459
   47      C       0.0634043677    -0.3737629435    -4.3612453486
   48      H      -0.8754741225    -0.3461890132    -4.9043635752
   49      C       0.0592745143    -0.3412775247    -2.9722985807
   50      B      -1.2839890669    -0.2525781911    -2.1969773006
   51      C      -2.6445552779    -0.2260355155    -2.9855977278
   52      C      -3.2065993255     0.9853533531    -3.4001263085
   53      C      -4.3998932181     0.9880761708    -4.1154481491
   54      H      -4.8242883225     1.9356351661    -4.4305944171
   55      C      -5.0580880078    -0.1907955534    -4.4350079376
   56      C      -4.4908525283    -1.3898993152    -4.0190723561
   57      H      -4.9893443499    -2.3241034211    -4.2583686977
   58      C      -3.3014509393    -1.4224926317    -3.3046566649
   59      C      -6.3427932727    -0.1850650574    -5.2120877931
   60      H      -6.6928198180     0.8287751049    -5.4029661873
   61      H      -7.1348555345    -0.7117043780    -4.6773942269
   62      H      -6.2253190807    -0.6789986373    -6.1783876633
   63      C      -2.5156779020     2.2809495318    -3.0799951600
   64      H      -3.0823296693     3.1407798576    -3.4365822092
   65      H      -1.5255904259     2.3279178256    -3.5392564970
   66      H      -2.3742528128     2.4044847211    -2.0041236190
   67      C      -2.7107767713    -2.7378573561    -2.8794762080
   68      H      -3.3427861132    -3.5774131926    -3.1683110012
   69      H      -2.5770108297    -2.7851456402    -1.7965653563
   70      H      -1.7284550736    -2.8970227632    -3.3300187979
   71      C       2.6852206137    -0.4586266089     0.0657242283
   72      C       3.1995490769    -1.7105269289     0.4123731157
   73      C       4.4140335771    -1.7946004010     1.0847180209
   74      H       4.8047543241    -2.7715422100     1.3499550700
   75      C       5.1360972865    -0.6586289660     1.4221917490
   76      C       4.6160279515     0.5814903441     1.0669783563
   77      H       5.1687183613     1.4810631139     1.3190082170
   78      C       3.4059898534     0.6948067006     0.3963779786
   79      C       6.4395611314    -0.7574346712     2.1603038855
   80      H       6.7669549165    -1.7919582617     2.2586290243
   81      H       7.2316245323    -0.2078176342     1.6498193139
   82      H       6.3581567429    -0.3432772259     3.1669297976
   83      C       2.8625407961     2.0438123887     0.0152107987
   84      H       3.5187657083     2.8518799400     0.3372463617
   85      H       2.7389971983     2.1317472455    -1.0668001379
   86      H       1.8809321520     2.2192496292     0.4612334765
   87      C       2.4398604398    -2.9576051891     0.0514657102
   88      H       2.9519039689    -3.8573337974     0.3918938498
   89      H       2.3072708998    -3.0460028435    -1.0294295872
   90      H       1.4415797643    -2.9612308305     0.4951566292
 ----------------------------------------------------------------

    9   -1973.6985211164      6.15E-09 Convergence criterion met
 Total energy in the final basis set = -1973.69852112

         TDDFT/TDA Excitation Energies
 ---------------------------------------------------

 Excited state   1: excitation energy (eV) =    2.0584
 Total energy for state  1:                 -1973.62287709 au
    Multiplicity: Triplet
    Trans. Mom.:  0.0000 X   0.0000 Y   0.0000 Z
    Strength   :     0.0000000000
    D(167) --> V(  2) amplitude = -0.3074
    D(174) --> V(  1) amplitude =  0.9111

 Excited state   2: excitation energy (eV) =    2.3543
 Total energy for state  2:                 -1973.61200282 au
    Multiplicity: Triplet
    Trans. Mom.:  0.0000 X   0.0000 Y   0.0000 Z
    Strength   :     0.0000000000
    D(171) --> V(  2) amplitude =  0.5163
    D(173) --> V(  1) amplitude =  0.7801

 Excited state   3: excitation energy (eV) =    2.4042
 Total energy for state  3:                 -1973.61016810 au
    Multiplicity: Triplet
    Trans. Mom.:  0.0000 X   0.0000 Y   0.0000 Z
    Strength   :     0.0000000000
    D(171) --> V(  1) amplitude =  0.7114
    D(171) --> V(  4) amplitude =  0.2258
    D(173) --> V(  2) amplitude =  0.5874

 Excited state   4: excitation energy (eV) =    2.4494
 Total energy for state  4:                 -1973.60850579 au
    Multiplicity: Triplet
    Trans. Mom.:  0.0000 X   0.0000 Y   0.0000 Z
    Strength   :     0.0000000000
    D(167) --> V(  1) amplitude =  0.7096
    D(174) --> V(  2) amplitude = -0.6148

 Excited state   5: excitation energy (eV) =    3.0953
 Total energy for state  5:                 -1973.58476963 au
    Multiplicity: Triplet
    Trans. Mom.:  0.0000 X   0.0000 Y   0.0000 Z
    Strength   :     0.0000000000
    D(172) --> V(  1) amplitude =  0.9338

 ---------------------------------------------------

 Final energy is   -1973.60850578802
 **  OPTIMIZATION CONVERGED  **

                    Orbital Energies (a.u.)
 --------------------------------------------------------------

 Alpha MOs
 -- Occupied --
-10.465 -10.465 -10.465 -10.465 -10.464 -10.464 -10.463 -10.463
-10.463 -10.463 -10.461 -10.461 -10.461 -10.460 -10.460 -10.459
-10.459 -10.459 -10.459 -10.459 -10.459 -10.459 -10.450 -10.450
-10.450 -10.449 -10.445 -10.445 -10.445 -10.445 -10.445 -10.444
-10.444 -10.444 -10.431 -10.431 -10.430 -10.430 -10.428 -10.428
-10.428 -10.428 -10.428 -10.427 -10.423 -10.423 -10.423 -10.423
-10.415 -10.413  -6.944  -6.941  -1.012  -1.012  -0.957  -0.953
 -0.953  -0.951  -0.932  -0.932  -0.904  -0.896  -0.870  -0.866
 -0.865  -0.865  -0.853  -0.853  -0.847  -0.847  -0.813  -0.812
 -0.810  -0.796  -0.778  -0.778  -0.756  -0.754  -0.754  -0.754
 -0.730  -0.730  -0.730  -0.716  -0.687  -0.678  -0.676  -0.664
 -0.648  -0.641  -0.636  -0.636  -0.636  -0.634  -0.596  -0.592
 -0.588  -0.587  -0.582  -0.574  -0.573  -0.549  -0.545  -0.541
 -0.538  -0.537  -0.527  -0.526  -0.518  -0.508  -0.500  -0.497
 -0.492  -0.491  -0.491  -0.485  -0.481  -0.480  -0.479  -0.478
 -0.478  -0.477  -0.474  -0.466  -0.464  -0.464  -0.462  -0.461
 -0.461  -0.459  -0.453  -0.453  -0.447  -0.447  -0.444  -0.443
 -0.443  -0.438  -0.432  -0.426  -0.423  -0.418  -0.412  -0.410
 -0.409  -0.399  -0.397  -0.394  -0.394  -0.392  -0.390  -0.386
 -0.379  -0.377  -0.376  -0.376  -0.371  -0.363  -0.349  -0.347
 -0.343  -0.332  -0.319  -0.313  -0.296  -0.295  -0.271  -0.269
 -0.269  -0.262  -0.260  -0.259  -0.253  -0.246

          Ground-State Mulliken Net Atomic Charges

     Atom                 Charge (a.u.)
  ----------------------------------------
      1 C                    -0.153640
      2 C                    -0.382843
      3 H                     0.234528
      4 C                     0.085151
      5 C                     0.201888
      6 C                    -0.371290
      7 H                     0.222399
      8 C                    -0.202741
      9 H                     0.226568
     10 C                    -0.335741
     11 H                     0.220761
     12 C                    -0.080496
     13 C                     0.254486
     14 C                    -0.333517
     15 H                     0.220606
     16 C                    -0.204554
     17 H                     0.226706
     18 C                    -0.367294
     19 H                     0.222368
     20 C                     0.197601
     21 C                     0.078756
     22 C                    -0.381013
     23 H                     0.233143
     24 C                    -0.155131
     25 B                     0.699019
     26 C                    -0.154174
     27 C                    -0.381407
     28 H                     0.236321
     29 C                     0.084144
     30 C                     0.203635
     31 C                    -0.372000
     32 H                     0.222741
     33 C                    -0.202666
     34 H                     0.226478
     35 C                    -0.335666
     36 H                     0.220717
     37 C                    -0.081767
     38 C                     0.253102
     39 C                    -0.332670
     40 H                     0.220537
     41 C                    -0.204590
     42 H                     0.226717
     43 C                    -0.367189
     44 H                     0.222210
     45 C                     0.198578
     46 C                     0.078199
     47 C                    -0.381053
     48 H                     0.234019
     49 C                    -0.154207
     50 B                     0.701757
     51 C                    -0.222237
     52 C                     0.062100
     53 C                    -0.343925
     54 H                     0.195771
     55 C                     0.131014
     56 C                    -0.339149
     57 H                     0.196139
     58 C                     0.061286
     59 C                    -0.709591
     60 H                     0.225791
     61 H                     0.229128
     62 H                     0.230209
     63 C                    -0.758419
     64 H                     0.233523
     65 H                     0.243505
     66 H                     0.243714
     67 C                    -0.758786
     68 H                     0.233616
     69 H                     0.244014
     70 H                     0.243667
     71 C                    -0.226249
     72 C                     0.064820
     73 C                    -0.347048
     74 H                     0.195822
     75 C                     0.131043
     76 C                    -0.340179
     77 H                     0.195817
     78 C                     0.067072
     79 C                    -0.709142
     80 H                     0.225722
     81 H                     0.228067
     82 H                     0.230662
     83 C                    -0.758638
     84 H                     0.233353
     85 H                     0.243937
     86 H                     0.243941
     87 C                    -0.761335
     88 H                     0.234008
     89 H                     0.244860
     90 H                     0.244614
  ----------------------------------------
  Sum of atomic charges =    -0.000000

                    Cartesian Multipole Moments
 -----------------------------------------------------------------
    Charge (ESU x 10^10)
                -0.0000
    Dipole Moment (Debye)
         X      -0.0112      Y       0.0093      Z      -0.0346
       Tot       0.0376
    Quadrupole Moments (Debye-Ang)
        XX    -261.0563     XY      -1.7373     YY    -303.1674
        XZ      -6.3976     YZ       1.8298     ZZ    -252.7750

 Total job time:  24257.98s(wall), 140857.93s(cpu)
        *  Thank you very much for using Q-Chem.  Have a nice day.  *
