 Q-Chem 5.0, Q-Chem, Inc., Pleasanton, CA (2017)
 Q-Chem 5.0.1 for Intel X86 EM64T Linux

User input:
--------------------------------------------------------------
$rem
threads 8
jobtype	opt
method PBEh-3c
basis def2-mSVP
mem_static	1024
mem_total	14000
sym_ignore	true
cis_n_roots             6
cis_singlets            false
cis_triplets		true
rpa                     false
cis_state_deriv         5
state_follow		true
$end

$molecule
read gsopt.mol
$end

--------------------------------------------------------------

   15   -1973.6968027474      7.75E-09 Convergence criterion met
 Total energy in the final basis set = -1973.69680275
   13   -1973.7000926569      8.51E-09 Convergence criterion met
 Total energy in the final basis set = -1973.70009266
   12   -1973.7002467389      7.22E-09 Convergence criterion met
 Total energy in the final basis set = -1973.70024674
   11   -1973.7000924910      9.19E-09 Convergence criterion met
 Total energy in the final basis set = -1973.70009249
   12   -1973.6977661917      8.92E-09 Convergence criterion met
 Total energy in the final basis set = -1973.69776619
   12   -1973.6988272555      5.77E-09 Convergence criterion met
 Total energy in the final basis set = -1973.69882726
   11   -1973.6981052421      7.11E-09 Convergence criterion met
 Total energy in the final basis set = -1973.69810524
   11   -1973.6969788787      6.72E-09 Convergence criterion met
 Total energy in the final basis set = -1973.69697888
    9   -1973.6971878580      9.07E-09 Convergence criterion met
 Total energy in the final basis set = -1973.69718786

             Standard Nuclear Orientation (Angstroms)
    I     Atom           X                Y                Z
 ----------------------------------------------------------------
    1      C      -0.0307122729    -0.2484940437     0.0468908248
    2      C      -0.0279904130    -0.2053943869     1.4534703017
    3      H       0.9227549626    -0.2415873359     1.9752708400
    4      C      -1.2055998137    -0.1210301869     2.1579151813
    5      C      -1.4956402611    -0.0678966009     3.5885835585
    6      C      -0.7505413006    -0.0786404808     4.7399172556
    7      H       0.3303724778    -0.1365817533     4.7186152910
    8      C      -1.4237465824    -0.0127669743     5.9819647053
    9      H      -0.8323314346    -0.0220221469     6.8885034089
   10      C      -2.7934263545     0.0617724753     6.0829038459
   11      H      -3.2621706031     0.1099929110     7.0580591534
   12      C      -2.8987380109     0.0087712335     3.7048060832
   13      C      -3.5883202857     0.0743403500     4.9113942846
   14      C      -4.9995457751     0.1449717461     4.8223194784
   15      H      -5.5975528795     0.1979445896     5.7238566904
   16      C      -5.6155295637     0.1465890331     3.5922903592
   17      H      -6.6958166875     0.2014426604     3.5465349759
   18      C      -4.8898859447     0.0791306985     2.3817402601
   19      H      -5.4227556222     0.0838119681     1.4386254557
   20      C      -3.5213295452     0.0086807289     2.4402368454
   21      C      -2.4459007774    -0.0751034250     1.4551500433
   22      C      -2.4729891206    -0.1144613678     0.0836292383
   23      H      -3.4294036881    -0.0791021790    -0.4303125392
   24      C      -1.2711378657    -0.2017047748    -0.6540428215
   25      B       1.2966705752    -0.3540145519    -0.7177040532
   26      C       1.2728892105    -0.3905672879    -2.2525250029
   27      C       2.4837988651    -0.4715415639    -2.9637537336
   28      H       3.4155900522    -0.5092517652    -2.4093634294
   29      C       2.4921775827    -0.5024494091    -4.3371222308
   30      C       3.5784668025    -0.5790883087    -5.3107453071
   31      C       4.9470817502    -0.6479240704    -5.2500886160
   32      H       5.4760801539    -0.6555626916    -4.3055501291
   33      C       5.6765437990    -0.7103275964    -6.4600256701
   34      H       6.7563758909    -0.7639341525    -6.4075949793
   35      C       5.0708174905    -0.7061107867    -7.6948158746
   36      H       5.6733634407    -0.7557767086    -8.5934566729
   37      C       2.9688268103    -0.5763786013    -6.5821187006
   38      C       3.6601835331    -0.6374612494    -7.7889817755
   39      C       2.8723137981    -0.6245641680    -8.9652546486
   40      H       3.3483964065    -0.6697794402    -9.9372143902
   41      C       1.5015638793    -0.5543982066    -8.8772247396
   42      H       0.9165745812    -0.5452563904    -9.7882226415
   43      C       0.8249031639    -0.4936079736    -7.6379762364
   44      H      -0.2568997484    -0.4396197251    -7.6236033501
   45      C       1.5650476255    -0.5046972086    -6.4827239329
   46      C       1.2603829768    -0.4573710889    -5.0542240348
   47      C       0.0668098540    -0.3830046098    -4.3825336345
   48      H      -0.8591157726    -0.3540116018    -4.9501731169
   49      C       0.0428477306    -0.3449316015    -2.9699217683
   50      B      -1.2692150964    -0.2520174280    -2.1853385356
   51      C      -2.6177727729    -0.2090551975    -2.9699625648
   52      C      -3.1834081709     1.0475042268    -3.3919209734
   53      C      -4.3556978901     1.0622716840    -4.1050439101
   54      H      -4.7824318473     2.0041009276    -4.4263558588
   55      C      -5.0196936554    -0.1305227095    -4.4305402825
   56      C      -4.4737065514    -1.3656689317    -4.0184405324
   57      H      -4.9984309923    -2.2773823791    -4.2785912441
   58      C      -3.3073024397    -1.4261220865    -3.3064462896
   59      C      -6.2849645366    -0.1164274776    -5.2089626754
   60      H      -6.6408714598     0.8912165689    -5.4083947516
   61      H      -7.0688468991    -0.6642469086    -4.6818046203
   62      H      -6.1453168338    -0.6254440819    -6.1662623002
   63      C      -2.4690783281     2.3065119070    -3.0463881736
   64      H      -3.0042209155     3.1869317825    -3.3973722576
   65      H      -1.4684253256     2.3079361408    -3.4824133229
   66      H      -2.3311042786     2.3852283936    -1.9668756614
   67      C      -2.7231708388    -2.7281059060    -2.8751578132
   68      H      -3.3456962171    -3.5698911108    -3.1737783301
   69      H      -2.5970067022    -2.7527524161    -1.7920135097
   70      H      -1.7286619030    -2.8604082278    -3.3040816174
   71      C       2.6652137012    -0.4396165084     0.0508982766
   72      C       3.1953058008    -1.6831815577     0.4123160410
   73      C       4.4089222511    -1.7508225784     1.0875673224
   74      H       4.8087053116    -2.7215793478     1.3625849695
   75      C       5.1199505478    -0.6051318282     1.4168424323
   76      C       4.5889786276     0.6271527428     1.0490085995
   77      H       5.1332163835     1.5338940925     1.2943547520
   78      C       3.3796963561     0.7221317577     0.3749379475
   79      C       6.4221283647    -0.6853514866     2.1591060818
   80      H       6.7588499880    -1.7160584744     2.2671493637
   81      H       7.2107224805    -0.1325449316     1.6462309835
   82      H       6.3346040819    -0.2632215247     3.1621692531
   83      C       2.8273258285     2.0634574376    -0.0179847359
   84      H       3.4785459771     2.8785746065     0.2977780319
   85      H       2.7015176240     2.1366302539    -1.1005016562
   86      H       1.8431104290     2.2315040602     0.4243466240
   87      C       2.4504205735    -2.9420282462     0.0638781261
   88      H       2.9757352997    -3.8322839168     0.4102668108
   89      H       2.3134612450    -3.0362504281    -1.0156304548
   90      H       1.4531652493    -2.9500408991     0.5089948214
 ----------------------------------------------------------------

    9   -1973.6971969867      6.79E-09 Convergence criterion met
 Total energy in the final basis set = -1973.69719699

         TDDFT/TDA Excitation Energies
 ---------------------------------------------------

 Excited state   1: excitation energy (eV) =    2.2097
 Total energy for state  1:                 -1973.61599210 au
    Multiplicity: Triplet
    Trans. Mom.:  0.0000 X   0.0000 Y   0.0000 Z
    Strength   :     0.0000000000
    D(167) --> V(  2) amplitude =  0.2507
    D(172) --> V(  1) amplitude = -0.3015
    D(173) --> V(  1) amplitude =  0.8681

 Excited state   2: excitation energy (eV) =    2.4412
 Total energy for state  2:                 -1973.60748634 au
    Multiplicity: Triplet
    Trans. Mom.:  0.0000 X   0.0000 Y   0.0000 Z
    Strength   :     0.0000000000
    D(171) --> V(  2) amplitude = -0.4840
    D(172) --> V(  1) amplitude =  0.7585
    D(173) --> V(  1) amplitude =  0.2586

 Excited state   3: excitation energy (eV) =    2.5008
 Total energy for state  3:                 -1973.60529473 au
    Multiplicity: Triplet
    Trans. Mom.:  0.0000 X   0.0000 Y   0.0000 Z
    Strength   :     0.0000000000
    D(171) --> V(  1) amplitude =  0.7358
    D(171) --> V(  4) amplitude =  0.2379
    D(172) --> V(  2) amplitude = -0.5157

 Excited state   4: excitation energy (eV) =    2.7094
 Total energy for state  4:                 -1973.59762903 au
    Multiplicity: Triplet
    Trans. Mom.:  0.0000 X   0.0000 Y   0.0000 Z
    Strength   :     0.0000000000
    D(167) --> V(  1) amplitude = -0.7136
    D(172) --> V(  2) amplitude =  0.2135
    D(173) --> V(  2) amplitude = -0.5223

 Excited state   5: excitation energy (eV) =    2.7964
 Total energy for state  5:                 -1973.59443027 au
    Multiplicity: Triplet
    Trans. Mom.:  0.0000 X   0.0000 Y   0.0000 Z
    Strength   :     0.0000000000
    D(174) --> V(  1) amplitude =  0.9529

 Excited state   6: excitation energy (eV) =    3.1427
 Total energy for state  6:                 -1973.58170665 au
    Multiplicity: Triplet
    Trans. Mom.:  0.0000 X   0.0000 Y   0.0000 Z
    Strength   :     0.0000000000
    D(170) --> V(  1) amplitude =  0.9499

 ---------------------------------------------------

 Final energy is   -1973.59443026533
 **  OPTIMIZATION CONVERGED  **

                    Orbital Energies (a.u.)
 --------------------------------------------------------------

 Alpha MOs
 -- Occupied --
-10.464 -10.464 -10.463 -10.463 -10.463 -10.463 -10.462 -10.461
-10.461 -10.461 -10.461 -10.461 -10.461 -10.460 -10.460 -10.460
-10.459 -10.459 -10.459 -10.458 -10.458 -10.458 -10.452 -10.452
-10.451 -10.450 -10.446 -10.446 -10.446 -10.446 -10.446 -10.445
-10.445 -10.445 -10.432 -10.432 -10.431 -10.430 -10.428 -10.428
-10.428 -10.427 -10.427 -10.426 -10.424 -10.423 -10.422 -10.422
-10.419 -10.415  -6.941  -6.938  -1.013  -1.013  -0.960  -0.956
 -0.953  -0.947  -0.932  -0.932  -0.906  -0.897  -0.869  -0.869
 -0.866  -0.865  -0.853  -0.852  -0.846  -0.845  -0.821  -0.812
 -0.810  -0.801  -0.779  -0.778  -0.757  -0.756  -0.755  -0.749
 -0.733  -0.726  -0.726  -0.719  -0.688  -0.680  -0.678  -0.664
 -0.649  -0.643  -0.638  -0.636  -0.634  -0.630  -0.594  -0.591
 -0.589  -0.588  -0.582  -0.574  -0.574  -0.550  -0.544  -0.542
 -0.538  -0.537  -0.526  -0.526  -0.518  -0.506  -0.502  -0.495
 -0.494  -0.493  -0.490  -0.485  -0.482  -0.482  -0.479  -0.478
 -0.478  -0.477  -0.474  -0.466  -0.466  -0.464  -0.462  -0.462
 -0.462  -0.458  -0.457  -0.454  -0.451  -0.448  -0.447  -0.444
 -0.442  -0.441  -0.430  -0.428  -0.425  -0.420  -0.411  -0.410
 -0.409  -0.401  -0.397  -0.394  -0.393  -0.392  -0.390  -0.387
 -0.378  -0.377  -0.377  -0.373  -0.372  -0.364  -0.352  -0.348
 -0.346  -0.333  -0.318  -0.312  -0.294  -0.293  -0.279  -0.272
 -0.269  -0.261  -0.260  -0.253  -0.253  -0.249

          Ground-State Mulliken Net Atomic Charges

     Atom                 Charge (a.u.)
  ----------------------------------------
      1 C                    -0.149354
      2 C                    -0.396935
      3 H                     0.234823
      4 C                     0.108816
      5 C                     0.199776
      6 C                    -0.382523
      7 H                     0.221401
      8 C                    -0.203693
      9 H                     0.226161
     10 C                    -0.334436
     11 H                     0.220478
     12 C                    -0.066220
     13 C                     0.251701
     14 C                    -0.333366
     15 H                     0.220152
     16 C                    -0.204543
     17 H                     0.226549
     18 C                    -0.378286
     19 H                     0.221055
     20 C                     0.197466
     21 C                     0.098655
     22 C                    -0.389662
     23 H                     0.232559
     24 C                    -0.153697
     25 B                     0.696625
     26 C                    -0.149835
     27 C                    -0.395707
     28 H                     0.236481
     29 C                     0.108085
     30 C                     0.201290
     31 C                    -0.383267
     32 H                     0.221706
     33 C                    -0.203510
     34 H                     0.226038
     35 C                    -0.334486
     36 H                     0.220409
     37 C                    -0.067461
     38 C                     0.250419
     39 C                    -0.332502
     40 H                     0.220049
     41 C                    -0.204641
     42 H                     0.226520
     43 C                    -0.378185
     44 H                     0.220880
     45 C                     0.198781
     46 C                     0.097857
     47 C                    -0.389210
     48 H                     0.233596
     49 C                    -0.153270
     50 B                     0.688582
     51 C                    -0.243760
     52 C                     0.070843
     53 C                    -0.339748
     54 H                     0.196360
     55 C                     0.117835
     56 C                    -0.335325
     57 H                     0.195855
     58 C                     0.073077
     59 C                    -0.709911
     60 H                     0.226170
     61 H                     0.228320
     62 H                     0.229123
     63 C                    -0.757275
     64 H                     0.232938
     65 H                     0.244631
     66 H                     0.244747
     67 C                    -0.756790
     68 H                     0.232907
     69 H                     0.244739
     70 H                     0.244611
     71 C                    -0.227980
     72 C                     0.062903
     73 C                    -0.345172
     74 H                     0.196150
     75 C                     0.129839
     76 C                    -0.338809
     77 H                     0.196239
     78 C                     0.064674
     79 C                    -0.709227
     80 H                     0.225779
     81 H                     0.228305
     82 H                     0.230874
     83 C                    -0.758446
     84 H                     0.233725
     85 H                     0.243763
     86 H                     0.243609
     87 C                    -0.760402
     88 H                     0.234218
     89 H                     0.244324
     90 H                     0.244163
  ----------------------------------------
  Sum of atomic charges =    -0.000000

                    Cartesian Multipole Moments
 -----------------------------------------------------------------
    Charge (ESU x 10^10)
                -0.0000
    Dipole Moment (Debye)
         X       0.1110      Y      -0.0235      Z       0.0503
       Tot       0.1241
    Quadrupole Moments (Debye-Ang)
        XX    -262.3169     XY      -1.6921     YY    -302.9203
        XZ      -6.3907     YZ       1.7928     ZZ    -254.2048

 Total job time:  23235.14s(wall), 135063.62s(cpu)
        *  Thank you very much for using Q-Chem.  Have a nice day.  *
