 Q-Chem 5.1, Q-Chem, Inc., Pleasanton, CA (2018)
 Q-Chem 5.1.1 for Intel X86 EM64T Linux

User input:
--------------------------------------------------------------
$rem
threads 4
jobtype	opt
method PBEh-3c
basis def2-mSVP
mem_static	1024
mem_total	4000
sym_ignore	true
scf_convergence	9
solvent_method	pcm
$end

$molecule
read gsopt.mol
$end

$solvent
dielectric	1.0001
$end

$pcm
theory iefpcm
$end
--------------------------------------------------------------

   17   -3084.7833223079      7.34e-10  Convergence criterion met
 Total energy in the final basis set =    -3084.7833223079
   14   -3084.7831774830      7.38e-10  Convergence criterion met
 Total energy in the final basis set =    -3084.7831774830
   14   -3084.7820726753      8.19e-10  Convergence criterion met
 Total energy in the final basis set =    -3084.7820726753
   14   -3084.7831125781      5.16e-10  Convergence criterion met
 Total energy in the final basis set =    -3084.7831125781
   14   -3084.7827028419      5.58e-10  Convergence criterion met
 Total energy in the final basis set =    -3084.7827028419
   14   -3084.7832249643      5.08e-10  Convergence criterion met
 Total energy in the final basis set =    -3084.7832249643
   13   -3084.7830140294      5.39e-10  Convergence criterion met
 Total energy in the final basis set =    -3084.7830140294
   13   -3084.7831618605      3.66e-10  Convergence criterion met
   12   -3084.7829535327      7.19e-10  Convergence criterion met
 Total energy in the final basis set =    -3084.7829535327
   12   -3084.7829475968      6.43e-10  Convergence criterion met
 Total energy in the final basis set =    -3084.7829475968
   11   -3084.7829368527      9.15e-10  Convergence criterion met
 Total energy in the final basis set =    -3084.7829368527
   11   -3084.7829626436      9.26e-10  Convergence criterion met
 Total energy in the final basis set =    -3084.7829626436
   10   -3084.7829714771      9.40e-10  Convergence criterion met
 Total energy in the final basis set =    -3084.7829714771
   11   -3084.7829840055      6.78e-10  Convergence criterion met
 Total energy in the final basis set =    -3084.7829840055

             Standard Nuclear Orientation (Angstroms)
    I     Atom           X                Y                Z
 ----------------------------------------------------------------
    1      C       0.0225163263     0.2522826522     0.1818069276
    2      C       0.0222813597     0.2837050344     1.5819489891
    3      H       0.9662941427     0.3063483732     2.1156438861
    4      C      -1.1760717063     0.2821321738     2.2755271968
    5      C      -2.3938569367     0.2239179605     1.5623759147
    6      C      -2.4048882708     0.1719503988     0.1825691805
    7      H      -3.3437424836     0.1063044005    -0.3568005135
    8      C      -1.2027983331     0.1980327694    -0.5242958317
    9      C      -1.4996771139     0.3243838054     3.7059417328
   10      C      -0.7844837677     0.3901168712     4.8713343726
   11      H       0.2977147793     0.4234844415     4.8776397594
   12      C      -2.9054857746     0.2874923453     3.7923749010
   13      C      -3.6293085233     0.3114084210     4.9780418689
   14      C      -3.4953987205     0.2245520931     2.5178822611
   15      C      -4.8608638544     0.1804798781     2.4175562280
   16      H      -5.3633171828     0.1298161696     1.4592114722
   17      C      -1.4913220913     0.4166884314     6.0980597956
   18      H      -0.9233799724     0.4697513002     7.0174624425
   19      C      -2.8641809401     0.3788755119     6.1660050168
   20      H      -3.3576258765     0.4016864603     7.1297484095
   21      C      -5.0395292011     0.2656688923     4.8521162547
   22      H      -5.6630637550     0.2806822656     5.7375468935
   23      C      -5.6230462876     0.2017308529     3.6083175109
   24      H      -6.7022214936     0.1665976047     3.5341438516
   25      B       1.3623126824     0.2513717693    -0.6102254369
   26      C       1.3480881379     0.3694154671    -2.1625373206
   27      C       2.5480558953     0.4635728209    -2.8785424520
   28      H       3.4914722901     0.4777825825    -2.3441633352
   29      C       2.5279721441     0.5268506456    -4.2595713819
   30      C       1.2939219591     0.4633800934    -4.9444433998
   31      C       0.1073829686     0.3426015500    -4.2516684594
   32      H      -0.8332308685     0.2680623112    -4.7865573537
   33      C       0.1171919833     0.3078677995    -2.8566775842
   34      C       3.5914048838     0.6369853690    -5.2655544583
   35      C       4.9569827619     0.7384358428    -5.2448213579
   36      H       5.5157040844     0.7509780562    -4.3174666174
   37      C       2.9473975110     0.6330110822    -6.5185051474
   38      C       3.5971560206     0.7227103846    -7.7448997806
   39      C       1.5524086406     0.5288643093    -6.3799881463
   40      C       0.7732234747     0.5122608302    -7.5074484124
   41      H      -0.3060394066     0.4348759465    -7.4567509895
   42      C       5.6494326369     0.8306283140    -6.4766844973
   43      H       6.7283329629     0.9102280212    -6.4557395914
   44      C       5.0068693983     0.8242832105    -7.6921818700
   45      H       5.5809612665     0.8980487628    -8.6076714321
   46      C       2.7729629049     0.7034966365    -8.8966430678
   47      H       3.2176555393     0.7696156921    -9.8821149256
   48      C       1.4078974449     0.6007454772    -8.7683322835
   49      H       0.7941870801     0.5876056729    -9.6597626983
   50      B      -1.2185425289     0.1435839584    -2.0787232731
   51      C      -2.5558388169    -0.1260517936    -2.8613509759
   52      C      -3.3019127028     0.9046260572    -3.4463137064
   53      C      -4.4562234369     0.6182074845    -4.1632278708
   54      H      -5.0107409247     1.4274570772    -4.6246599341
   55      C      -4.9161375136    -0.6880411455    -4.2871759769
   56      C      -4.1864978258    -1.7112126940    -3.6926683187
   57      H      -4.5351349684    -2.7349033185    -3.7726156190
   58      C      -3.0118598300    -1.4440151587    -3.0051130470
   59      N      -6.0993911573    -0.9652900316    -4.9930929060
   60      C      -7.2047419559    -0.1038108483    -4.8769031044
   61      C      -7.9347587223     0.2505290991    -6.0095425940
   62      H      -7.6346684242    -0.1283708432    -6.9781656466
   63      C      -9.0417738822     1.0746393350    -5.8974110439
   64      H      -9.6005633909     1.3377561809    -6.7861988003
   65      C      -9.4257084088     1.5739820360    -4.6614518798
   66      H     -10.2873561602     2.2225876707    -4.5775608529
   67      C      -8.6934558796     1.2314100727    -3.5340704539
   68      H      -8.9875263964     1.6071660944    -2.5626291673
   69      C      -7.5968304357     0.3911165136    -3.6346425546
   70      H      -7.0414645238     0.1123365413    -2.7484242904
   71      C      -6.2267733632    -2.1438215855    -5.7473096424
   72      C      -7.4059675570    -2.8865010817    -5.7016131117
   73      H      -8.2244217469    -2.5567282057    -5.0748468516
   74      C      -7.5351035922    -4.0424871718    -6.4534003633
   75      H      -8.4584069442    -4.6052509269    -6.4047324641
   76      C      -6.4895225077    -4.4898189758    -7.2470494551
   77      H      -6.5905523687    -5.3976337145    -7.8264779709
   78      C      -5.3119434595    -3.7572968991    -7.2878405951
   79      H      -4.4888410372    -4.0888548650    -7.9076347817
   80      C      -5.1809256949    -2.5892514129    -6.5554896263
   81      H      -4.2623931693    -2.0188993016    -6.6049156713
   82      C      -2.2162648197    -2.6101165253    -2.4769515248
   83      H      -2.8959375855    -3.3689318467    -2.0800624268
   84      H      -1.5923603368    -2.3036210890    -1.6329219011
   85      C      -2.9128278550     2.3494664366    -3.2729125290
   86      H      -3.0590844692     2.8868893470    -4.2139282259
   87      H      -1.8477243736     2.4384094978    -3.0429427114
   88      C      -3.7285748398     3.0269505980    -2.1741872868
   89      H      -3.5737337837     2.5378746125    -1.2121250364
   90      H      -3.4471772980     4.0745201205    -2.0633255167
   91      H      -4.7953900729     2.9881785369    -2.3986416958
   92      C      -1.3377805001    -3.2341802322    -3.5592402184
   93      H      -0.6285101635    -2.5078342283    -3.9570609223
   94      H      -1.9415718366    -3.5994668263    -4.3909423556
   95      H      -0.7673702206    -4.0758586140    -3.1647040028
   96      C       2.7247476809     0.0514635143     0.1336618138
   97      C       3.6004087453     1.1166890561     0.3828903414
   98      C       4.8111170932     0.8880218863     1.0232770559
   99      H       5.4746529584     1.7196407142     1.2323665183
  100      C       5.1861106411    -0.3982458764     1.3952313556
  101      C       4.3242800506    -1.4561958067     1.1320772630
  102      H       4.6149439992    -2.4633427465     1.4085659718
  103      C       3.0974551222    -1.2434293359     0.5212142750
  104      N       6.4194819025    -0.6309473998     2.0312097731
  105      C       7.5868805984    -0.0363793994     1.5298956348
  106      C       7.7779605740     0.0981672762     0.1551656858
  107      H       7.0245908025    -0.2723148932    -0.5282004282
  108      C       8.9215746350     0.7054488401    -0.3345764330
  109      H       9.0528911474     0.8041421777    -1.4044912232
  110      C       9.9012807061     1.1686195033     0.5313396264
  111      H      10.7961796309     1.6377350253     0.1452651013
  112      C       9.7187770059     1.0226347144     1.8989368934
  113      H      10.4712951100     1.3847843848     2.5873683616
  114      C       8.5695231811     0.4346126049     2.3993846949
  115      H       8.4280126084     0.3416559753     3.4684119202
  116      C       6.4860224323    -1.5592473157     3.0823080325
  117      C       5.5051606453    -1.5657695045     4.0736756620
  118      H       4.7021791136    -0.8407563169     4.0366195801
  119      C       5.5489830920    -2.5010997282     5.0928772499
  120      H       4.7769403455    -2.4955484466     5.8514937973
  121      C       6.5773498326    -3.4305879583     5.1550218465
  122      H       6.6110788393    -4.1566894102     5.9560633367
  123      C       7.5594389703    -3.4187387659     4.1760931361
  124      H       8.3628498647    -4.1434195918     4.2049450083
  125      C       7.5129905646    -2.4996145964     3.1408039771
  126      H       8.2729042828    -2.5151187855     2.3700040636
  127      C       2.2245257838    -2.4358202690     0.2143998213
  128      H       2.3919815376    -3.2092392888     0.9680667449
  129      H       1.1681415109    -2.1669553148     0.2980976382
  130      C       3.2103198325     2.5296001949     0.0297991054
  131      H       4.1092982450     3.1180242886    -0.1695428442
  132      H       2.6338249134     2.5419016120    -0.8995086189
  133      C       2.4850580834    -3.0243010647    -1.1720287266
  134      H       2.2862406433    -2.2987192355    -1.9605557921
  135      H       1.8456049306    -3.8896087002    -1.3525397426
  136      H       3.5214559837    -3.3475786309    -1.2743515266
  137      C       2.3965352779     3.2075161997     1.1300151761
  138      H       1.4585979402     2.6826375399     1.3118622322
  139      H       2.1503427184     4.2340392944     0.8567106374
  140      H       2.9507099803     3.2331402705     2.0687056239
 ----------------------------------------------------------------

   10   -3084.7829890350      5.14e-10  Convergence criterion met
 Total energy in the final basis set =    -3084.7829890350
 Final energy is   -3084.78298903496
 **  OPTIMIZATION CONVERGED  **

                    Orbital Energies (a.u.)
 --------------------------------------------------------------

 Alpha MOs
 -- Occupied --
-14.668 -14.667 -10.489 -10.489 -10.488 -10.488 -10.483 -10.482
-10.465 -10.465 -10.464 -10.464 -10.464 -10.464 -10.463 -10.463
-10.462 -10.462 -10.462 -10.462 -10.462 -10.462 -10.460 -10.460
-10.460 -10.460 -10.459 -10.459 -10.459 -10.459 -10.454 -10.453
-10.451 -10.451 -10.449 -10.449 -10.448 -10.448 -10.448 -10.448
-10.447 -10.447 -10.447 -10.446 -10.446 -10.446 -10.446 -10.446
-10.445 -10.445 -10.444 -10.443 -10.443 -10.443 -10.443 -10.443
-10.442 -10.441 -10.441 -10.441 -10.434 -10.434 -10.434 -10.433
-10.433 -10.433 -10.433 -10.432 -10.432 -10.432 -10.432 -10.432
-10.421 -10.420 -10.419 -10.419 -10.418 -10.417  -6.948  -6.947
 -1.078  -1.078  -1.016  -1.015  -0.963  -0.960  -0.959  -0.959
 -0.959  -0.958  -0.939  -0.938  -0.933  -0.933  -0.908  -0.900
 -0.888  -0.887  -0.867  -0.865  -0.854  -0.854  -0.850  -0.849
 -0.847  -0.846  -0.840  -0.838  -0.837  -0.836  -0.824  -0.821
 -0.819  -0.813  -0.812  -0.804  -0.799  -0.798  -0.791  -0.789
 -0.735  -0.730  -0.727  -0.720  -0.717  -0.715  -0.710  -0.709
 -0.698  -0.698  -0.697  -0.697  -0.689  -0.682  -0.680  -0.680
 -0.679  -0.673  -0.667  -0.665  -0.649  -0.647  -0.638  -0.635
 -0.630  -0.629  -0.605  -0.604  -0.595  -0.594  -0.593  -0.589
 -0.586  -0.584  -0.583  -0.575  -0.574  -0.562  -0.560  -0.554
 -0.553  -0.543  -0.543  -0.541  -0.541  -0.537  -0.528  -0.525
 -0.523  -0.522  -0.516  -0.511  -0.509  -0.507  -0.502  -0.502
 -0.501  -0.499  -0.497  -0.496  -0.496  -0.495  -0.495  -0.490
 -0.488  -0.487  -0.484  -0.484  -0.484  -0.483  -0.483  -0.481
 -0.481  -0.480  -0.478  -0.478  -0.475  -0.468  -0.468  -0.465
 -0.462  -0.455  -0.454  -0.450  -0.442  -0.440  -0.435  -0.434
 -0.433  -0.433  -0.430  -0.427  -0.426  -0.426  -0.426  -0.425
 -0.423  -0.422  -0.420  -0.417  -0.412  -0.411  -0.406  -0.405
 -0.404  -0.403  -0.399  -0.398  -0.397  -0.396  -0.396  -0.395
 -0.394  -0.394  -0.393  -0.391  -0.390  -0.387  -0.386  -0.384
 -0.378  -0.371  -0.367  -0.364  -0.355  -0.354  -0.350  -0.349
 -0.341  -0.338  -0.317  -0.312  -0.303  -0.301  -0.298  -0.297
 -0.295  -0.294  -0.294  -0.293  -0.285  -0.282  -0.279  -0.273
 -0.272  -0.261  -0.256  -0.254  -0.219  -0.218

          Ground-State Mulliken Net Atomic Charges

     Atom                 Charge (a.u.)
  ----------------------------------------
      1 C                    -0.150019
      2 C                    -0.395809
      3 H                     0.233934
      4 C                     0.112133
      5 C                     0.087404
      6 C                    -0.384498
      7 H                     0.228969
      8 C                    -0.154434
      9 C                     0.197341
     10 C                    -0.386813
     11 H                     0.217666
     12 C                    -0.064034
     13 C                     0.253481
     14 C                     0.195839
     15 C                    -0.376382
     16 H                     0.217361
     17 C                    -0.202456
     18 H                     0.226005
     19 C                    -0.337433
     20 H                     0.220522
     21 C                    -0.332735
     22 H                     0.220138
     23 C                    -0.205647
     24 H                     0.226253
     25 B                     0.655258
     26 C                    -0.152418
     27 C                    -0.389551
     28 H                     0.231545
     29 C                     0.112917
     30 C                     0.085423
     31 C                    -0.384789
     32 H                     0.231880
     33 C                    -0.152340
     34 C                     0.199781
     35 C                    -0.386035
     36 H                     0.216758
     37 C                    -0.064695
     38 C                     0.251586
     39 C                     0.197575
     40 C                    -0.377797
     41 H                     0.218828
     42 C                    -0.202294
     43 H                     0.225391
     44 C                    -0.336806
     45 H                     0.220518
     46 C                    -0.331881
     47 H                     0.220076
     48 C                    -0.205751
     49 H                     0.226736
     50 B                     0.659944
     51 C                    -0.233592
     52 C                     0.084465
     53 C                    -0.353714
     54 H                     0.233714
     55 C                     0.319882
     56 C                    -0.363746
     57 H                     0.236738
     58 C                     0.073690
     59 N                    -0.675615
     60 C                     0.278986
     61 C                    -0.270277
     62 H                     0.243836
     63 C                    -0.215125
     64 H                     0.221034
     65 C                    -0.235363
     66 H                     0.218706
     67 C                    -0.215470
     68 H                     0.219412
     69 C                    -0.269896
     70 H                     0.240289
     71 C                     0.293425
     72 C                    -0.279848
     73 H                     0.245165
     74 C                    -0.213387
     75 H                     0.220233
     76 C                    -0.237858
     77 H                     0.217766
     78 C                    -0.214248
     79 H                     0.219891
     80 C                    -0.275543
     81 H                     0.241960
     82 C                    -0.556205
     83 H                     0.233704
     84 H                     0.257392
     85 C                    -0.546134
     86 H                     0.230783
     87 H                     0.250740
     88 C                    -0.639317
     89 H                     0.230668
     90 H                     0.220210
     91 H                     0.218360
     92 C                    -0.641632
     93 H                     0.240013
     94 H                     0.217616
     95 H                     0.217513
     96 C                    -0.217563
     97 C                     0.085170
     98 C                    -0.349345
     99 H                     0.231076
    100 C                     0.301292
    101 C                    -0.358377
    102 H                     0.234088
    103 C                     0.074070
    104 N                    -0.672878
    105 C                     0.297066
    106 C                    -0.278992
    107 H                     0.241906
    108 C                    -0.212997
    109 H                     0.216072
    110 C                    -0.237812
    111 H                     0.217027
    112 C                    -0.214457
    113 H                     0.219994
    114 C                    -0.276950
    115 H                     0.244297
    116 C                     0.289428
    117 C                    -0.270841
    118 H                     0.240265
    119 C                    -0.213310
    120 H                     0.218291
    121 C                    -0.237442
    122 H                     0.217531
    123 C                    -0.214582
    124 H                     0.220304
    125 C                    -0.279283
    126 H                     0.244977
    127 C                    -0.559040
    128 H                     0.234376
    129 H                     0.258538
    130 C                    -0.546847
    131 H                     0.231015
    132 H                     0.250257
    133 C                    -0.645636
    134 H                     0.246813
    135 H                     0.216604
    136 H                     0.217910
    137 C                    -0.645050
    138 H                     0.240216
    139 H                     0.220458
    140 H                     0.216494
  ----------------------------------------
  Sum of atomic charges =    -0.000000

                    Cartesian Multipole Moments
 -----------------------------------------------------------------
    Charge (ESU x 10^10)
                -0.0000
    Dipole Moment (Debye)
         X      -0.5255      Y       0.1365      Z      -0.1627
       Tot       0.5668
    Quadrupole Moments (Debye-Ang)
        XX    -418.9727     XY       0.5613     YY    -462.6589
        XZ     -12.2042     YZ      -1.6066     ZZ    -408.1780

 Total job time:  115745.01s(wall), 417104.68s(cpu)
        *  Thank you very much for using Q-Chem.  Have a nice day.  *
