 Q-Chem 5.1, Q-Chem, Inc., Pleasanton, CA (2018)
 Q-Chem 5.1.1 for Intel X86 EM64T Linux

User input:
--------------------------------------------------------------
$rem
threads 4
jobtype	opt
method PBEh-3c
basis def2-mSVP
mem_static	1024
mem_total	4000
sym_ignore	true
scf_convergence	9
solvent_method	pcm
$end

$molecule
read gsopt.mol
$end

$solvent
dielectric	8.93
$end

$pcm
theory iefpcm
$end
--------------------------------------------------------------

   16   -3084.8160368406      9.20e-10  Convergence criterion met
 Total energy in the final basis set =    -3084.8160368406
   15   -3084.8161208387      4.28e-10  Convergence criterion met
 Total energy in the final basis set =    -3084.8161208387
   15   -3084.8150250577      4.65e-10  Convergence criterion met
 Total energy in the final basis set =    -3084.8150250577
   15   -3084.8160106667      4.16e-10  Convergence criterion met
 Total energy in the final basis set =    -3084.8160106667
   15   -3084.8154634267      4.49e-10  Convergence criterion met
 Total energy in the final basis set =    -3084.8154634267
   15   -3084.8161430881      4.20e-10  Convergence criterion met
 Total energy in the final basis set =    -3084.8161430881
   15   -3084.8159138229      3.91e-10  Convergence criterion met
 Total energy in the final basis set =    -3084.8159138229
   15   -3084.8160191423      3.89e-10  Convergence criterion met
   14   -3084.8158540342      9.90e-10  Convergence criterion met
 Total energy in the final basis set =    -3084.8158540342
   14   -3084.8158885766      9.43e-10  Convergence criterion met
 Total energy in the final basis set =    -3084.8158885766
   14   -3084.8158948721      9.23e-10  Convergence criterion met
 Total energy in the final basis set =    -3084.8158948721
   14   -3084.8159182808      9.31e-10  Convergence criterion met
 Total energy in the final basis set =    -3084.8159182808
   14   -3084.8159278181      9.05e-10  Convergence criterion met
 Total energy in the final basis set =    -3084.8159278181
   14   -3084.8159293220      9.42e-10  Convergence criterion met
 Total energy in the final basis set =    -3084.8159293220

             Standard Nuclear Orientation (Angstroms)
    I     Atom           X                Y                Z
 ----------------------------------------------------------------
    1      C       0.0218179966     0.2795772742     0.1792456720
    2      C       0.0184373240     0.3177526609     1.5796052531
    3      H       0.9582066070     0.3387407070     2.1205905946
    4      C      -1.1827489035     0.3274313509     2.2702678040
    5      C      -2.3997481348     0.2732626286     1.5535440527
    6      C      -2.4075491734     0.2117466591     0.1730495834
    7      H      -3.3481512270     0.1499519902    -0.3634811891
    8      C      -1.2027927725     0.2266322844    -0.5304993437
    9      C      -1.5094294434     0.3808326291     3.6996580508
   10      C      -0.7953763368     0.4488230416     4.8672331395
   11      H       0.2872023178     0.4736433382     4.8767526466
   12      C      -2.9163444216     0.3551110794     3.7813455522
   13      C      -3.6437647908     0.3926468900     4.9655824571
   14      C      -3.5043520310     0.2885000042     2.5054739885
   15      C      -4.8711013242     0.2550980532     2.4003005898
   16      H      -5.3715281275     0.2032633233     1.4407462342
   17      C      -1.5067522147     0.4888736458     6.0921764423
   18      H      -0.9406681901     0.5434118283     7.0127582663
   19      C      -2.8815822410     0.4622952538     6.1565605832
   20      H      -3.3785712006     0.4953917331     7.1183046936
   21      C      -5.0550488115     0.3573423265     4.8365132414
   22      H      -5.6800701377     0.3832377678     5.7207914435
   23      C      -5.6362053062     0.2900663342     3.5900965364
   24      H      -6.7155030794     0.2635203701     3.5127781469
   25      B       1.3639994695     0.2690793104    -0.6094433294
   26      C       1.3541886206     0.3907019329    -2.1620638847
   27      C       2.5558785287     0.4955198819    -2.8744058694
   28      H       3.5002134987     0.5187524858    -2.3420889967
   29      C       2.5389112802     0.5618658324    -4.2562697216
   30      C       1.3062535874     0.4912169355    -4.9451373499
   31      C       0.1178156849     0.3612953384    -4.2553615111
   32      H      -0.8185017535     0.2844525490    -4.7972056212
   33      C       0.1246274210     0.3234477620    -2.8599541637
   34      C       3.6047198981     0.6826076845    -5.2586270139
   35      C       4.9708441926     0.7937185288    -5.2329265336
   36      H       5.5275436789     0.8070892509    -4.3041561177
   37      C       2.9629378645     0.6774274135    -6.5133505221
   38      C       3.6157789199     0.7755109554    -7.7385307052
   39      C       1.5676859337     0.5624680480    -6.3799513939
   40      C       0.7901554941     0.5428484245    -7.5101072142
   41      H      -0.2887460829     0.4565156388    -7.4628280259
   42      C       5.6655851863     0.8948225905    -6.4640008324
   43      H       6.7439075242     0.9821915177    -6.4395092083
   44      C       5.0256269000     0.8874496088    -7.6826064480
   45      H       5.6006107208     0.9681515174    -8.5970777588
   46      C       2.7948942797     0.7534993775    -8.8938273139
   47      H       3.2429544904     0.8259509350    -9.8774482705
   48      C       1.4288118610     0.6398976669    -8.7695107166
   49      H       0.8174543292     0.6243562452    -9.6626398870
   50      B      -1.2134433176     0.1573167737    -2.0851627889
   51      C      -2.5475929106    -0.1270650540    -2.8687112313
   52      C      -3.3089795253     0.8958273975    -3.4481839100
   53      C      -4.4631015335     0.5965229611    -4.1616694960
   54      H      -5.0264524708     1.4021975353    -4.6189565232
   55      C      -4.9084264929    -0.7156837726    -4.2864182466
   56      C      -4.1621149168    -1.7317445462    -3.6980412503
   57      H      -4.4957073178    -2.7607062974    -3.7755499612
   58      C      -2.9870168935    -1.4506699407    -3.0149374973
   59      N      -6.0930720916    -1.0037183885    -4.9847329193
   60      C      -7.2039534132    -0.1465935055    -4.8680386608
   61      C      -7.9252801269     0.2152196786    -6.0043414981
   62      H      -7.6159096272    -0.1504937842    -6.9755441112
   63      C      -9.0375955275     1.0347433657    -5.8943271127
   64      H      -9.5896030498     1.3046270924    -6.7856051338
   65      C      -9.4341537650     1.5204670813    -4.6555177454
   66      H     -10.2993099735     2.1650529733    -4.5727247070
   67      C      -8.7104207561     1.1690354409    -3.5236748188
   68      H      -9.0146405040     1.5332671279    -2.5507577223
   69      C      -7.6086318928     0.3333433733    -3.6234534059
   70      H      -7.0631982706     0.0480863494    -2.7327151239
   71      C      -6.2249039288    -2.1921905048    -5.7238452195
   72      C      -7.3986742914    -2.9421264977    -5.6477658752
   73      H      -8.2085683876    -2.6143103991    -5.0084433588
   74      C      -7.5346361259    -4.1082314898    -6.3849885786
   75      H      -8.4532746518    -4.6765531586    -6.3127203242
   76      C      -6.5001728683    -4.5570351030    -7.1944701515
   77      H      -6.6059885580    -5.4717773582    -7.7626433058
   78      C      -5.3276195362    -3.8162912894    -7.2659625879
   79      H      -4.5141421243    -4.1481530360    -7.8985301680
   80      C      -5.1908359005    -2.6387379973    -6.5476352194
   81      H      -4.2765006842    -2.0639602697    -6.6239544280
   82      C      -2.1758870835    -2.6084853767    -2.4913460700
   83      H      -2.8445866018    -3.3720154006    -2.0854186492
   84      H      -1.5431170023    -2.2942092109    -1.6565627186
   85      C      -2.9366542431     2.3453271836    -3.2760160884
   86      H      -3.0672408874     2.8754783623    -4.2232485503
   87      H      -1.8780528414     2.4451162518    -3.0215082472
   88      C      -3.7822486317     3.0234559767    -2.2002101183
   89      H      -3.6530821227     2.5358002095    -1.2332976174
   90      H      -3.5043818180     4.0716611231    -2.0857080927
   91      H      -4.8427443971     2.9834565900    -2.4531585838
   92      C      -1.3044216367    -3.2303437462    -3.5808735053
   93      H      -0.6074971059    -2.4989672853    -3.9921162074
   94      H      -1.9148563909    -3.6074425580    -4.4026186611
   95      H      -0.7213510542    -4.0635905808    -3.1866991427
   96      C       2.7237460644     0.0560925188     0.1369534078
   97      C       3.6031437992     1.1155643817     0.3993640140
   98      C       4.8125625182     0.8747914520     1.0393920116
   99      H       5.4773551067     1.7033131022     1.2576167125
  100      C       5.1815342609    -0.4176146261     1.3978608847
  101      C       4.3154838524    -1.4697422423     1.1229491987
  102      H       4.5997749138    -2.4822471414     1.3870203211
  103      C       3.0901116601    -1.2448144908     0.5111584877
  104      N       6.4142258578    -0.6617232964     2.0321872203
  105      C       7.5870635992    -0.0803716341     1.5261343972
  106      C       7.7745492702     0.0542365082     0.1501685976
  107      H       7.0172612187    -0.3057312834    -0.5349595756
  108      C       8.9243151034     0.6496328655    -0.3436340205
  109      H       9.0518185853     0.7484220819    -1.4141991367
  110      C       9.9132973385     1.1004878781     0.5202905096
  111      H      10.8123662822     1.5600316561     0.1315333088
  112      C       9.7339118618     0.9545420131     1.8897025264
  113      H      10.4927625879     1.3071795106     2.5765024671
  114      C       8.5786148007     0.3784162229     2.3934319528
  115      H       8.4420294831     0.2885643855     3.4637061940
  116      C       6.4743327586    -1.5991175504     3.0767133747
  117      C       5.5024771068    -1.5938689822     4.0778838430
  118      H       4.7124632534    -0.8535280379     4.0579172216
  119      C       5.5383434491    -2.5376096641     5.0914196865
  120      H       4.7739208493    -2.5220945641     5.8578582905
  121      C       6.5507399905    -3.4873495472     5.1368852165
  122      H       6.5787988122    -4.2196470904     5.9329072590
  123      C       7.5243598806    -3.4871711202     4.1476053391
  124      H       8.3145158676    -4.2270307417     4.1633658828
  125      C       7.4848167275    -2.5590227292     3.1184123658
  126      H       8.2374581517    -2.5867057640     2.3404631413
  127      C       2.2124321392    -2.4302046274     0.1900751552
  128      H       2.3666733814    -3.2085058435     0.9412951122
  129      H       1.1569455610    -2.1539401601     0.2610822714
  130      C       3.2217661397     2.5340333562     0.0592968703
  131      H       4.1233296891     3.1154651695    -0.1474197142
  132      H       2.6324292089     2.5565588073    -0.8617004096
  133      C       2.4837571417    -3.0156196814    -1.1958134711
  134      H       2.3027710340    -2.2833022360    -1.9828832130
  135      H       1.8352275502    -3.8718802066    -1.3871285213
  136      H       3.5173664908    -3.3519258911    -1.2862698131
  137      C       2.4285459650     3.2135126851     1.1738008025
  138      H       1.4920022901     2.6909828564     1.3701865051
  139      H       2.1826364114     4.2410552112     0.9038194480
  140      H       2.9981381262     3.2370019689     2.1035244187
 ----------------------------------------------------------------

   14   -3084.8159313127      9.96e-10  Convergence criterion met
 Total energy in the final basis set =    -3084.8159313127
 Final energy is   -3084.81593131273
 **  OPTIMIZATION CONVERGED  **

                    Orbital Energies (a.u.)
 --------------------------------------------------------------

 Alpha MOs
 -- Occupied --
-14.672 -14.671 -10.493 -10.493 -10.493 -10.493 -10.488 -10.487
-10.468 -10.468 -10.466 -10.466 -10.465 -10.465 -10.465 -10.465
-10.465 -10.465 -10.464 -10.464 -10.462 -10.462 -10.462 -10.462
-10.462 -10.461 -10.458 -10.458 -10.458 -10.458 -10.458 -10.457
-10.455 -10.455 -10.454 -10.453 -10.453 -10.453 -10.450 -10.450
-10.449 -10.449 -10.449 -10.449 -10.449 -10.449 -10.449 -10.449
-10.448 -10.448 -10.447 -10.447 -10.447 -10.446 -10.446 -10.446
-10.446 -10.444 -10.444 -10.444 -10.438 -10.438 -10.438 -10.437
-10.437 -10.437 -10.436 -10.436 -10.436 -10.435 -10.435 -10.435
-10.424 -10.424 -10.422 -10.421 -10.421 -10.421  -6.953  -6.952
 -1.082  -1.082  -1.019  -1.018  -0.967  -0.964  -0.963  -0.962
 -0.962  -0.962  -0.942  -0.942  -0.934  -0.934  -0.911  -0.903
 -0.891  -0.890  -0.871  -0.868  -0.857  -0.857  -0.853  -0.853
 -0.847  -0.847  -0.842  -0.842  -0.839  -0.839  -0.827  -0.824
 -0.822  -0.815  -0.813  -0.807  -0.803  -0.801  -0.794  -0.793
 -0.737  -0.732  -0.727  -0.722  -0.720  -0.718  -0.713  -0.712
 -0.701  -0.700  -0.700  -0.699  -0.689  -0.684  -0.683  -0.682
 -0.680  -0.675  -0.669  -0.667  -0.651  -0.649  -0.640  -0.638
 -0.634  -0.632  -0.607  -0.606  -0.597  -0.596  -0.591  -0.589
 -0.588  -0.587  -0.584  -0.576  -0.574  -0.564  -0.563  -0.557
 -0.556  -0.546  -0.544  -0.544  -0.543  -0.539  -0.528  -0.526
 -0.525  -0.524  -0.518  -0.513  -0.512  -0.510  -0.504  -0.503
 -0.503  -0.500  -0.499  -0.498  -0.498  -0.497  -0.496  -0.492
 -0.490  -0.489  -0.488  -0.487  -0.486  -0.485  -0.484  -0.483
 -0.482  -0.482  -0.478  -0.477  -0.477  -0.471  -0.469  -0.467
 -0.463  -0.458  -0.454  -0.453  -0.445  -0.440  -0.438  -0.437
 -0.437  -0.437  -0.434  -0.431  -0.430  -0.429  -0.429  -0.427
 -0.426  -0.423  -0.421  -0.419  -0.413  -0.412  -0.408  -0.408
 -0.407  -0.404  -0.401  -0.400  -0.398  -0.398  -0.398  -0.397
 -0.397  -0.395  -0.394  -0.393  -0.392  -0.389  -0.389  -0.387
 -0.382  -0.374  -0.370  -0.368  -0.359  -0.359  -0.354  -0.353
 -0.346  -0.343  -0.321  -0.316  -0.308  -0.306  -0.302  -0.302
 -0.299  -0.298  -0.297  -0.297  -0.290  -0.287  -0.283  -0.278
 -0.276  -0.264  -0.261  -0.258  -0.224  -0.224

          Ground-State Mulliken Net Atomic Charges

     Atom                 Charge (a.u.)
  ----------------------------------------
      1 C                    -0.150847
      2 C                    -0.400622
      3 H                     0.249788
      4 C                     0.093390
      5 C                     0.069318
      6 C                    -0.390088
      7 H                     0.244682
      8 C                    -0.156836
      9 C                     0.178661
     10 C                    -0.397803
     11 H                     0.251611
     12 C                    -0.066904
     13 C                     0.221839
     14 C                     0.177551
     15 C                    -0.388156
     16 H                     0.251442
     17 C                    -0.231709
     18 H                     0.257301
     19 C                    -0.350426
     20 H                     0.254900
     21 C                    -0.346259
     22 H                     0.254503
     23 C                    -0.234472
     24 H                     0.257707
     25 B                     0.651563
     26 C                    -0.152795
     27 C                    -0.394782
     28 H                     0.247080
     29 C                     0.094365
     30 C                     0.067784
     31 C                    -0.389338
     32 H                     0.246577
     33 C                    -0.154468
     34 C                     0.181098
     35 C                    -0.397299
     36 H                     0.250905
     37 C                    -0.067651
     38 C                     0.219816
     39 C                     0.179308
     40 C                    -0.388951
     41 H                     0.251696
     42 C                    -0.231723
     43 H                     0.256959
     44 C                    -0.349728
     45 H                     0.254953
     46 C                    -0.345417
     47 H                     0.254530
     48 C                    -0.234426
     49 H                     0.257909
     50 B                     0.655680
     51 C                    -0.232296
     52 C                     0.075863
     53 C                    -0.368334
     54 H                     0.248446
     55 C                     0.322086
     56 C                    -0.377637
     57 H                     0.249694
     58 C                     0.058959
     59 N                    -0.674013
     60 C                     0.275936
     61 C                    -0.287988
     62 H                     0.260092
     63 C                    -0.242516
     64 H                     0.249873
     65 C                    -0.262109
     66 H                     0.247272
     67 C                    -0.242999
     68 H                     0.249528
     69 C                    -0.286661
     70 H                     0.258877
     71 C                     0.292890
     72 C                    -0.298484
     73 H                     0.260246
     74 C                    -0.240918
     75 H                     0.248964
     76 C                    -0.265776
     77 H                     0.246002
     78 C                    -0.241563
     79 H                     0.248993
     80 C                    -0.292981
     81 H                     0.260094
     82 C                    -0.558491
     83 H                     0.245480
     84 H                     0.258889
     85 C                    -0.547818
     86 H                     0.242775
     87 H                     0.251381
     88 C                    -0.653085
     89 H                     0.229891
     90 H                     0.229050
     91 H                     0.223598
     92 C                    -0.655314
     93 H                     0.235592
     94 H                     0.223461
     95 H                     0.227778
     96 C                    -0.216892
     97 C                     0.076433
     98 C                    -0.362798
     99 H                     0.246789
    100 C                     0.302221
    101 C                    -0.371347
    102 H                     0.247733
    103 C                     0.058689
    104 N                    -0.671229
    105 C                     0.296937
    106 C                    -0.299357
    107 H                     0.259797
    108 C                    -0.241153
    109 H                     0.247753
    110 C                    -0.266425
    111 H                     0.245557
    112 C                    -0.241736
    113 H                     0.248810
    114 C                    -0.295812
    115 H                     0.260582
    116 C                     0.288719
    117 C                    -0.291402
    118 H                     0.259135
    119 C                    -0.241159
    120 H                     0.248605
    121 C                    -0.265504
    122 H                     0.246056
    123 C                    -0.242137
    124 H                     0.249200
    125 C                    -0.296839
    126 H                     0.260508
    127 C                    -0.560395
    128 H                     0.246085
    129 H                     0.259285
    130 C                    -0.548140
    131 H                     0.243391
    132 H                     0.250592
    133 C                    -0.659020
    134 H                     0.240781
    135 H                     0.227770
    136 H                     0.223694
    137 C                    -0.657480
    138 H                     0.236490
    139 H                     0.229489
    140 H                     0.222783
  ----------------------------------------
  Sum of atomic charges =    -0.000000

                    Cartesian Multipole Moments
 -----------------------------------------------------------------
    Charge (ESU x 10^10)
                -0.0000
    Dipole Moment (Debye)
         X      -0.6586      Y       0.2303      Z      -0.2090
       Tot       0.7283
    Quadrupole Moments (Debye-Ang)
        XX    -401.9651     XY       0.5414     YY    -457.8859
        XZ     -15.8526     YZ      -2.1582     ZZ    -389.5694

 Total job time:  136796.05s(wall), 505139.47s(cpu)
        *  Thank you very much for using Q-Chem.  Have a nice day.  *
