 Q-Chem 5.1, Q-Chem, Inc., Pleasanton, CA (2018)
 Q-Chem 5.1.1 for Intel X86 EM64T Linux

User input:
--------------------------------------------------------------
$rem
threads 4
jobtype	opt
method PBEh-3c
basis def2-mSVP
mem_static	1024
mem_total	4000
sym_ignore	true
scf_convergence	9
solvent_method	pcm
$end

$molecule
read gsopt.mol
$end

$solvent
dielectric	4.33
$end

$pcm
theory iefpcm
$end
--------------------------------------------------------------

   17   -3084.8089896101      4.15e-10  Convergence criterion met
 Total energy in the final basis set =    -3084.8089896101
   15   -3084.8089568382      4.32e-10  Convergence criterion met
 Total energy in the final basis set =    -3084.8089568382
   15   -3084.8078739406      4.48e-10  Convergence criterion met
 Total energy in the final basis set =    -3084.8078739406
   15   -3084.8089019864      4.03e-10  Convergence criterion met
 Total energy in the final basis set =    -3084.8089019864
   15   -3084.8083946919      4.38e-10  Convergence criterion met
 Total energy in the final basis set =    -3084.8083946919
   15   -3084.8090159016      3.94e-10  Convergence criterion met
 Total energy in the final basis set =    -3084.8090159016
   14   -3084.8087723464      9.39e-10  Convergence criterion met
 Total energy in the final basis set =    -3084.8087723464
   14   -3084.8089333801      8.66e-10  Convergence criterion met
   14   -3084.8087324237      7.78e-10  Convergence criterion met
 Total energy in the final basis set =    -3084.8087324237
   14   -3084.8087514295      8.36e-10  Convergence criterion met
 Total energy in the final basis set =    -3084.8087514295
   14   -3084.8087727691      7.64e-10  Convergence criterion met
 Total energy in the final basis set =    -3084.8087727691
   14   -3084.8087966135      7.55e-10  Convergence criterion met
 Total energy in the final basis set =    -3084.8087966135
   14   -3084.8088008872      7.55e-10  Convergence criterion met
 Total energy in the final basis set =    -3084.8088008872
   14   -3084.8088144391      7.15e-10  Convergence criterion met
 Total energy in the final basis set =    -3084.8088144391

             Standard Nuclear Orientation (Angstroms)
    I     Atom           X                Y                Z
 ----------------------------------------------------------------
    1      C       0.0229446398     0.2656320385     0.1802296344
    2      C       0.0210089608     0.3026955195     1.5805428341
    3      H       0.9620335702     0.3256268079     2.1192814406
    4      C      -1.1791023132     0.3084134311     2.2726172050
    5      C      -2.3965691129     0.2509222424     1.5574714277
    6      C      -2.4058132202     0.1915614056     0.1771712084
    7      H      -3.3462420146     0.1276761141    -0.3594620468
    8      C      -1.2021748845     0.2108469423    -0.5279291828
    9      C      -1.5044117863     0.3601795400     3.7024173566
   10      C      -0.7896116121     0.4305684829     4.8690026134
   11      H       0.2928554590     0.4592641171     4.8772145046
   12      C      -2.9109879616     0.3297240246     3.7859869476
   13      C      -3.6370508024     0.3646007869     4.9708548899
   14      C      -3.4999774787     0.2616473319     2.5108221772
   15      C      -4.8664085371     0.2233615422     2.4074758554
   16      H      -5.3677402764     0.1697841813     1.4485227370
   17      C      -1.4994020059     0.4681967898     6.0946896790
   18      H      -0.9325012687     0.5248466701     7.0146340746
   19      C      -2.8737045318     0.4368283731     6.1606624811
   20      H      -3.3693777665     0.4682161016     7.1231325853
   21      C      -5.0481121627     0.3244505643     4.8432707562
   22      H      -5.6724664040     0.3480550476     5.7280726123
   23      C      -5.6303267420     0.2553208121     3.5978428466
   24      H      -6.7096090413     0.2248742711     3.5218144607
   25      B       1.3641293978     0.2588542960    -0.6100162377
   26      C       1.3523279222     0.3780295443    -2.1626521560
   27      C       2.5531104236     0.4804771724    -2.8766735781
   28      H       3.4975379503     0.5023365400    -2.3444600943
   29      C       2.5345919420     0.5451035563    -4.2583841952
   30      C       1.3012703121     0.4750791706    -4.9454999549
   31      C       0.1137747025     0.3472525815    -4.2542095987
   32      H      -0.8238273219     0.2702612002    -4.7938081285
   33      C       0.1220753411     0.3111465292    -2.8589059589
   34      C       3.5991533731     0.6635464293    -5.2623784341
   35      C       4.9650785766     0.7734640089    -5.2387811544
   36      H       5.5228598085     0.7873437754    -4.3107018560
   37      C       2.9560384743     0.6578101347    -6.5162622040
   38      C       3.6072522968     0.7542123748    -7.7421785264
   39      C       1.5610145584     0.5445651742    -6.3806898958
   40      C       0.7822693265     0.5249950868    -7.5096212090
   41      H      -0.2966620834     0.4402000457    -7.4608534933
   42      C       5.6584108837     0.8728113569    -6.4705394246
   43      H       6.7368382777     0.9592719393    -6.4476262434
   44      C       5.0170381337     0.8649004016    -7.6880019291
   45      H       5.5912066020     0.9443375422    -8.6030872520
   46      C       2.7847802462     0.7320772408    -8.8960710377
   47      H       3.2312669859     0.8031528308    -9.8804970879
   48      C       1.4190827161     0.6201902349    -8.7698547544
   49      H       0.8065425748     0.6046668390    -9.6621690270
   50      B      -1.2150982901     0.1464267195    -2.0825611639
   51      C      -2.5510107384    -0.1306799468    -2.8656827080
   52      C      -3.3061309295     0.8965942364    -3.4455448985
   53      C      -4.4608321624     0.6039771488    -4.1606005292
   54      H      -5.0200389291     1.4124678985    -4.6179589960
   55      C      -4.9125978035    -0.7056392283    -4.2870563462
   56      C      -4.1730749842    -1.7258484833    -3.6978663494
   57      H      -4.5126471026    -2.7526907281    -3.7774334102
   58      C      -2.9976617585    -1.4516965306    -3.0128242788
   59      N      -6.0970080941    -0.9876425396    -4.9886124571
   60      C      -7.2046751790    -0.1270320541    -4.8722588102
   61      C      -7.9254203982     0.2369067992    -6.0081631209
   62      H      -7.6177889246    -0.1309986552    -6.9790027761
   63      C      -9.0346704350     1.0600448002    -5.8978213004
   64      H      -9.5862386018     1.3312994961    -6.7889134045
   65      C      -9.4289251231     1.5477204936    -4.6593495536
   66      H     -10.2917723511     2.1952947172    -4.5764100709
   67      C      -8.7058282251     1.1943914047    -3.5280353553
   68      H      -9.0082407321     1.5603164265    -2.5552160703
   69      C      -7.6071480477     0.3550794526    -3.6278831311
   70      H      -7.0614948354     0.0682943829    -2.7378548045
   71      C      -6.2291459417    -2.1716854456    -5.7343487756
   72      C      -7.4064689772    -2.9169180023    -5.6700213302
   73      H      -8.2191697873    -2.5878476537    -5.0350196328
   74      C      -7.5421828713    -4.0786541784    -6.4135933891
   75      H      -8.4637042584    -4.6432979590    -6.3503180637
   76      C      -6.5042809317    -4.5282382674    -7.2177741965
   77      H      -6.6100206704    -5.4398951497    -7.7908007288
   78      C      -5.3283525942    -3.7923741891    -7.2775334700
   79      H      -4.5118545848    -4.1249967009    -7.9057524213
   80      C      -5.1915137546    -2.6189367102    -6.5530358341
   81      H      -4.2743642649    -2.0475739349    -6.6196200658
   82      C      -2.1935136914    -2.6141117623    -2.4888916108
   83      H      -2.8670592743    -3.3749248101    -2.0857510683
   84      H      -1.5622101798    -2.3039754212    -1.6515456264
   85      C      -2.9263138881     2.3439142663    -3.2715046834
   86      H      -3.0602697116     2.8772924278    -4.2165055750
   87      H      -1.8657168427     2.4385373651    -3.0235601740
   88      C      -3.7623960965     3.0224606997    -2.1886242891
   89      H      -3.6267318599     2.5333920818    -1.2234042819
   90      H      -3.4812821243     4.0697900915    -2.0742269583
   91      H      -4.8248388653     2.9851203798    -2.4337035987
   92      C      -1.3217574248    -3.2380372914    -3.5769120375
   93      H      -0.6193632690    -2.5096203908    -3.9838093225
   94      H      -1.9313519274    -3.6098366460    -4.4016720326
   95      H      -0.7443655165    -4.0753323214    -3.1830018465
   96      C       2.7253587702     0.0524706081     0.1355474530
   97      C       3.6011884364     1.1155634913     0.3947469408
   98      C       4.8111245645     0.8808401166     1.0358498924
   99      H       5.4736054607     1.7117652144     1.2518509801
  100      C       5.1842665544    -0.4090679496     1.3985180283
  101      C       4.3221440794    -1.4648600339     1.1259369859
  102      H       4.6101616431    -2.4753386061     1.3935225271
  103      C       3.0962603384    -1.2459656207     0.5134595876
  104      N       6.4172171575    -0.6472376876     2.0346280587
  105      C       7.5877731712    -0.0601790345     1.5304555436
  106      C       7.7776106710     0.0727875390     0.1548098579
  107      H       7.0232859332    -0.2931583074    -0.5303357994
  108      C       8.9248038973     0.6737369340    -0.3373993121
  109      H       9.0544538119     0.7711400154    -1.4078116666
  110      C       9.9090030981     1.1319632885     0.5276706415
  111      H      10.8062299636     1.5959332837     0.1400473781
  112      C       9.7274101494     0.9876344836     1.8966666627
  113      H      10.4827071662     1.3459268208     2.5843986361
  114      C       8.5746154562     0.4058788170     2.3989358962
  115      H       8.4356604933     0.3164996112     3.4688824429
  116      C       6.4801185026    -1.5813724386     3.0815734105
  117      C       5.5046351906    -1.5811077378     4.0790495588
  118      H       4.7092634376    -0.8468257755     4.0533771818
  119      C       5.5436250208    -2.5221336155     5.0945943381
  120      H       4.7760676204    -2.5107849147     5.8579323256
  121      C       6.5624957673    -3.4641959222     5.1461273947
  122      H       6.5927472753    -4.1945480179     5.9437870405
  123      C       7.5396624580    -3.4589715248     4.1607540900
  124      H       8.3351414971    -4.1929383170     4.1811976340
  125      C       7.4973641785    -2.5336596761     3.1294903419
  126      H       8.2530309982    -2.5568691649     2.3544078337
  127      C       2.2228409392    -2.4352965209     0.1956708477
  128      H       2.3808826953    -3.2112906673     0.9485514772
  129      H       1.1664015689    -2.1631128999     0.2679432423
  130      C       3.2149624970     2.5316039630     0.0499820187
  131      H       4.1148704375     3.1161368988    -0.1556138083
  132      H       2.6286248966     2.5495814454    -0.8730276557
  133      C       2.4950241181    -3.0220731899    -1.1894203920
  134      H       2.3088983960    -2.2927143012    -1.9779052805
  135      H       1.8510782861    -3.8823581363    -1.3780915381
  136      H       3.5303510897    -3.3526322225    -1.2809554164
  137      C       2.4154921106     3.2106719742     1.1601987700
  138      H       1.4791397654     2.6866321453     1.3531230769
  139      H       2.1681162259     4.2373097716     0.8881865662
  140      H       2.9810638329     3.2364128101     2.0922883265
 ----------------------------------------------------------------

   14   -3084.8088186360      7.41e-10  Convergence criterion met
 Total energy in the final basis set =    -3084.8088186360
 Final energy is   -3084.80881863604
 **  OPTIMIZATION CONVERGED  **

                    Orbital Energies (a.u.)
 --------------------------------------------------------------

 Alpha MOs
 -- Occupied --
-14.671 -14.670 -10.492 -10.492 -10.492 -10.492 -10.487 -10.486
-10.466 -10.466 -10.465 -10.465 -10.465 -10.465 -10.464 -10.464
-10.463 -10.463 -10.463 -10.463 -10.461 -10.461 -10.461 -10.461
-10.461 -10.460 -10.458 -10.458 -10.458 -10.458 -10.456 -10.456
-10.454 -10.453 -10.452 -10.452 -10.451 -10.451 -10.450 -10.449
-10.448 -10.448 -10.448 -10.448 -10.448 -10.448 -10.448 -10.448
-10.447 -10.447 -10.446 -10.445 -10.445 -10.445 -10.445 -10.445
-10.445 -10.443 -10.443 -10.443 -10.437 -10.437 -10.436 -10.436
-10.435 -10.435 -10.435 -10.435 -10.435 -10.434 -10.434 -10.433
-10.423 -10.422 -10.421 -10.420 -10.420 -10.419  -6.951  -6.951
 -1.081  -1.081  -1.017  -1.017  -0.965  -0.962  -0.962  -0.961
 -0.960  -0.960  -0.941  -0.941  -0.933  -0.933  -0.910  -0.902
 -0.890  -0.889  -0.869  -0.867  -0.855  -0.855  -0.852  -0.852
 -0.847  -0.846  -0.841  -0.841  -0.838  -0.838  -0.826  -0.823
 -0.821  -0.814  -0.812  -0.806  -0.802  -0.800  -0.793  -0.792
 -0.735  -0.731  -0.727  -0.721  -0.718  -0.717  -0.712  -0.711
 -0.700  -0.699  -0.699  -0.699  -0.689  -0.683  -0.682  -0.681
 -0.679  -0.674  -0.668  -0.666  -0.650  -0.648  -0.639  -0.637
 -0.632  -0.631  -0.606  -0.605  -0.595  -0.595  -0.591  -0.588
 -0.587  -0.586  -0.583  -0.575  -0.574  -0.563  -0.562  -0.556
 -0.555  -0.545  -0.543  -0.543  -0.542  -0.538  -0.528  -0.525
 -0.524  -0.524  -0.517  -0.512  -0.511  -0.508  -0.503  -0.502
 -0.502  -0.499  -0.498  -0.497  -0.497  -0.497  -0.495  -0.490
 -0.489  -0.488  -0.487  -0.486  -0.485  -0.484  -0.483  -0.482
 -0.482  -0.481  -0.478  -0.477  -0.476  -0.469  -0.467  -0.466
 -0.462  -0.456  -0.453  -0.451  -0.444  -0.439  -0.437  -0.436
 -0.436  -0.435  -0.433  -0.429  -0.429  -0.428  -0.427  -0.426
 -0.425  -0.422  -0.420  -0.418  -0.413  -0.412  -0.407  -0.407
 -0.406  -0.403  -0.400  -0.399  -0.398  -0.397  -0.397  -0.396
 -0.395  -0.394  -0.393  -0.392  -0.391  -0.388  -0.388  -0.386
 -0.380  -0.373  -0.369  -0.366  -0.358  -0.357  -0.353  -0.352
 -0.344  -0.341  -0.320  -0.315  -0.306  -0.305  -0.301  -0.301
 -0.298  -0.296  -0.296  -0.295  -0.288  -0.286  -0.282  -0.276
 -0.275  -0.263  -0.259  -0.256  -0.223  -0.222

          Ground-State Mulliken Net Atomic Charges

     Atom                 Charge (a.u.)
  ----------------------------------------
      1 C                    -0.150573
      2 C                    -0.399715
      3 H                     0.246127
      4 C                     0.098076
      5 C                     0.073767
      6 C                    -0.388851
      7 H                     0.240921
      8 C                    -0.156219
      9 C                     0.183175
     10 C                    -0.395933
     11 H                     0.244332
     12 C                    -0.065787
     13 C                     0.229422
     14 C                     0.182016
     15 C                    -0.386118
     16 H                     0.244081
     17 C                    -0.225660
     18 H                     0.250606
     19 C                    -0.348277
     20 H                     0.247392
     21 C                    -0.343973
     22 H                     0.246976
     23 C                    -0.228497
     24 H                     0.250970
     25 B                     0.653036
     26 C                    -0.152668
     27 C                    -0.393590
     28 H                     0.243203
     29 C                     0.098945
     30 C                     0.072184
     31 C                    -0.388434
     32 H                     0.243133
     33 C                    -0.153800
     34 C                     0.185630
     35 C                    -0.395359
     36 H                     0.243413
     37 C                    -0.066523
     38 C                     0.227403
     39 C                     0.183777
     40 C                    -0.387084
     41 H                     0.244720
     42 C                    -0.225604
     43 H                     0.250143
     44 C                    -0.347572
     45 H                     0.247433
     46 C                    -0.343122
     47 H                     0.247011
     48 C                    -0.228522
     49 H                     0.251279
     50 B                     0.657577
     51 C                    -0.232689
     52 C                     0.077189
     53 C                    -0.365804
     54 H                     0.245590
     55 C                     0.321282
     56 C                    -0.375124
     57 H                     0.247347
     58 C                     0.062565
     59 N                    -0.674377
     60 C                     0.276726
     61 C                    -0.284397
     62 H                     0.257190
     63 C                    -0.237059
     64 H                     0.243937
     65 C                    -0.256829
     66 H                     0.241310
     67 C                    -0.237513
     68 H                     0.243223
     69 C                    -0.283371
     70 H                     0.255190
     71 C                     0.293361
     72 C                    -0.294711
     73 H                     0.257545
     74 C                    -0.235373
     75 H                     0.242976
     76 C                    -0.260264
     77 H                     0.240055
     78 C                    -0.236097
     79 H                     0.242953
     80 C                    -0.289735
     81 H                     0.256590
     82 C                    -0.558189
     83 H                     0.242824
     84 H                     0.258929
     85 C                    -0.547818
     86 H                     0.239986
     87 H                     0.252150
     88 C                    -0.650397
     89 H                     0.230307
     90 H                     0.227345
     91 H                     0.222261
     92 C                    -0.652588
     93 H                     0.237318
     94 H                     0.221908
     95 H                     0.225391
     96 C                    -0.216966
     97 C                     0.078007
     98 C                    -0.360720
     99 H                     0.243726
    100 C                     0.301724
    101 C                    -0.368896
    102 H                     0.245188
    103 C                     0.062362
    104 N                    -0.671591
    105 C                     0.297061
    106 C                    -0.295229
    107 H                     0.256323
    108 C                    -0.235546
    109 H                     0.241000
    110 C                    -0.260691
    111 H                     0.239585
    112 C                    -0.236333
    113 H                     0.242867
    114 C                    -0.291947
    115 H                     0.257677
    116 C                     0.289194
    117 C                    -0.287213
    118 H                     0.255391
    119 C                    -0.235551
    120 H                     0.242268
    121 C                    -0.260007
    122 H                     0.240076
    123 C                    -0.236667
    124 H                     0.243213
    125 C                    -0.293423
    126 H                     0.257752
    127 C                    -0.560574
    128 H                     0.243532
    129 H                     0.259554
    130 C                    -0.548315
    131 H                     0.240506
    132 H                     0.251177
    133 C                    -0.656282
    134 H                     0.243045
    135 H                     0.225073
    136 H                     0.222139
    137 C                    -0.655114
    138 H                     0.237904
    139 H                     0.227738
    140 H                     0.221010
  ----------------------------------------
  Sum of atomic charges =    -0.000000

                    Cartesian Multipole Moments
 -----------------------------------------------------------------
    Charge (ESU x 10^10)
                -0.0000
    Dipole Moment (Debye)
         X      -0.6338      Y       0.2180      Z      -0.2023
       Tot       0.7001
    Quadrupole Moments (Debye-Ang)
        XX    -406.4742     XY       0.5575     YY    -459.0453
        XZ     -15.0418     YZ      -2.0117     ZZ    -394.1400

 Total job time:  105746.60s(wall), 394483.18s(cpu)
        *  Thank you very much for using Q-Chem.  Have a nice day.  *
