 Q-Chem 5.1, Q-Chem, Inc., Pleasanton, CA (2018)
 Q-Chem 5.1.1 for Intel X86 EM64T Linux

User input:
--------------------------------------------------------------
$rem
threads 4
jobtype	opt
method PBEh-3c
basis def2-mSVP
mem_static	1024
mem_total	4000
sym_ignore	true
scf_convergence	9
solvent_method	pcm
$end

$molecule
read gsopt.mol
$end

$solvent
dielectric	2.38
$end

$pcm
theory iefpcm
$end
--------------------------------------------------------------

   17   -3084.8002075270      4.66e-10  Convergence criterion met
 Total energy in the final basis set =    -3084.8002075270
   14   -3084.8001055988      9.84e-10  Convergence criterion met
 Total energy in the final basis set =    -3084.8001055988
   15   -3084.7990149509      4.25e-10  Convergence criterion met
 Total energy in the final basis set =    -3084.7990149509
   14   -3084.8000571012      9.09e-10  Convergence criterion met
 Total energy in the final basis set =    -3084.8000571012
   15   -3084.7995829507      4.18e-10  Convergence criterion met
 Total energy in the final basis set =    -3084.7995829507
   14   -3084.8001669858      8.16e-10  Convergence criterion met
 Total energy in the final basis set =    -3084.8001669858
   14   -3084.7999225639      7.02e-10  Convergence criterion met
 Total energy in the final basis set =    -3084.7999225639
   14   -3084.8001057395      6.69e-10  Convergence criterion met
   14   -3084.7998895134      5.54e-10  Convergence criterion met
 Total energy in the final basis set =    -3084.7998895134
   14   -3084.7998988141      5.87e-10  Convergence criterion met
 Total energy in the final basis set =    -3084.7998988141
   14   -3084.7998878032      5.83e-10  Convergence criterion met
 Total energy in the final basis set =    -3084.7998878032
   14   -3084.7999205157      5.90e-10  Convergence criterion met
 Total energy in the final basis set =    -3084.7999205157
   14   -3084.7999453875      5.61e-10  Convergence criterion met
 Total energy in the final basis set =    -3084.7999453875
   14   -3084.7999538967      5.68e-10  Convergence criterion met
 Total energy in the final basis set =    -3084.7999538967

             Standard Nuclear Orientation (Angstroms)
    I     Atom           X                Y                Z
 ----------------------------------------------------------------
    1      C       0.0237876355     0.2575186823     0.1802065136
    2      C       0.0226508414     0.2927742702     1.5804328963
    3      H       0.9648204149     0.3166243748     2.1171905720
    4      C      -1.1767065250     0.2948538473     2.2733068740
    5      C      -2.3942931940     0.2356949986     1.5591000138
    6      C      -2.4043852123     0.1792081062     0.1789786831
    7      H      -3.3443185970     0.1141953949    -0.3584350392
    8      C      -1.2014841477     0.2020283765    -0.5270191906
    9      C      -1.5012835111     0.3435983026     3.7033779287
   10      C      -0.7863009225     0.4139976336     4.8693988977
   11      H       0.2960499794     0.4456042230     4.8768197325
   12      C      -2.9075473687     0.3094040369     3.7881677901
   13      C      -3.6327335930     0.3404153644     4.9733599745
   14      C      -3.4969301567     0.2419137112     2.5133598516
   15      C      -4.8629695794     0.1999709298     2.4112142608
   16      H      -5.3647325580     0.1462844671     1.4525422849
   17      C      -1.4949632063     0.4478507920     6.0955305583
   18      H      -0.9276425266     0.5046278294     7.0151866466
   19      C      -2.8687054695     0.4126994918     6.1623923613
   20      H      -3.3634740652     0.4412291990     7.1253948253
   21      C      -5.0434666175     0.2966615865     4.8465306441
   22      H      -5.6675275338     0.3171168065     5.7315892394
   23      C      -5.6261993479     0.2279257102     3.6017800337
   24      H      -6.7054321829     0.1945124702     3.5265513657
   25      B       1.3642781908     0.2535408731    -0.6110484609
   26      C       1.3511916402     0.3710533313    -2.1636101317
   27      C       2.5515306911     0.4705747514    -2.8786178187
   28      H       3.4956812355     0.4895732698    -2.3457737007
   29      C       2.5321755450     0.5347096321    -4.2600960611
   30      C       1.2984560479     0.4667370596    -4.9460641415
   31      C       0.1114837814     0.3411701353    -4.2540027972
   32      H      -0.8272845289     0.2647578500    -4.7917103577
   33      C       0.1205759554     0.3057906702    -2.8588376757
   34      C       3.5959950791     0.6508138823    -5.2651213343
   35      C       4.9617416051     0.7584342816    -5.2429633771
   36      H       5.5201569407     0.7718787071    -4.3153091811
   37      C       2.9521866554     0.6458026779    -6.5184769839
   38      C       3.6024153172     0.7406176949    -7.7447298519
   39      C       1.5572787616     0.5352117946    -6.3814446181
   40      C       0.7779432911     0.5168715970    -7.5095397934
   41      H      -0.3010831550     0.4343666515    -7.4597544383
   42      C       5.6543328344     0.8560487827    -6.4749614427
   43      H       6.7329114145     0.9406627671    -6.4530594497
   44      C       5.0121531387     0.8487965927    -7.6915201511
   45      H       5.5860021367     0.9268831666    -8.6068992851
   46      C       2.7789270995     0.7196211215    -8.8975727543
   47      H       3.2243737501     0.7894901732    -9.8825332933
   48      C       1.4135276541     0.6104124651    -8.7702002317
   49      H       0.8002606899     0.5958758587    -9.6620079323
   50      B      -1.2159474189     0.1419086376    -2.0815734711
   51      C      -2.5528370164    -0.1308475022    -2.8643999953
   52      C      -3.3036577458     0.8988423251    -3.4454071574
   53      C      -4.4586719410     0.6101561048    -4.1612037404
   54      H      -5.0154605946     1.4198626845    -4.6192988260
   55      C      -4.9147951994    -0.6976839160    -4.2874707586
   56      C      -4.1799831727    -1.7201213542    -3.6968960278
   57      H      -4.5240183843    -2.7454120453    -3.7771046014
   58      C      -3.0044279939    -1.4501680506    -3.0109426119
   59      N      -6.0991842072    -0.9763522113    -4.9906445810
   60      C      -7.2049374688    -0.1140608257    -4.8742383481
   61      C      -7.9289420218     0.2469428159    -6.0088797871
   62      H      -7.6248595675    -0.1256860622    -6.9789241515
   63      C      -9.0364838279     1.0716474222    -5.8977503664
   64      H      -9.5906706320     1.3402819378    -6.7879420584
   65      C      -9.4260587051     1.5643237175    -4.6601451481
   66      H     -10.2877744310     2.2132213280    -4.5767292348
   67      C      -8.6996014356     1.2144757720    -3.5303609108
   68      H      -8.9982141876     1.5846740664    -2.5580308424
   69      C      -7.6025976142     0.3735580789    -3.6305932482
   70      H      -7.0533468987     0.0893957924    -2.7420474691
   71      C      -6.2310177387    -2.1578677277    -5.7400256187
   72      C      -7.4100666189    -2.9006471517    -5.6830262704
   73      H      -8.2246469137    -2.5705168933    -5.0511238039
   74      C      -7.5448066724    -4.0598125998    -6.4301170596
   75      H      -8.4677962797    -4.6225531095    -6.3725177150
   76      C      -6.5045479723    -4.5096898193    -7.2304834722
   77      H      -6.6097144620    -5.4196162464    -7.8062162117
   78      C      -5.3269819855    -3.7765643090    -7.2827959029
   79      H      -4.5083237235    -4.1096445258    -7.9078737836
   80      C      -5.1908330374    -2.6055380175    -6.5549235460
   81      H      -4.2723037908    -2.0358201432    -6.6148106564
   82      C      -2.2047901321    -2.6150915558    -2.4859159177
   83      H      -2.8814271616    -3.3741706056    -2.0845632104
   84      H      -1.5752076068    -2.3071779024    -1.6465282916
   85      C      -2.9190230659     2.3447665805    -3.2706410868
   86      H      -3.0579270553     2.8806003706    -4.2135895077
   87      H      -1.8564665111     2.4362785781    -3.0301344305
   88      C      -3.7462621685     3.0226540701    -2.1806183591
   89      H      -3.6026198156     2.5331103481    -1.2168909771
   90      H      -3.4643310849     4.0698558428    -2.0672351448
   91      H      -4.8106260150     2.9853901019    -2.4171552745
   92      C      -1.3320726999    -3.2401901653    -3.5724617229
   93      H      -0.6265953048    -2.5132976513    -3.9764511451
   94      H      -1.9405542692    -3.6090533817    -4.3993072034
   95      H      -0.7578035630    -4.0796336863    -3.1786293770
   96      C       2.7262097218     0.0510808358     0.1339849425
   97      C       3.6006621706     1.1159457851     0.3897479478
   98      C       4.8107904102     0.8849057230     1.0315128741
   99      H       5.4726171294     1.7169045289     1.2451793324
  100      C       5.1857175131    -0.4031573743     1.3981945699
  101      C       4.3250265491    -1.4607848910     1.1287069799
  102      H       4.6147874668    -2.4696543168     1.4002961177
  103      C       3.0989781324    -1.2455802220     0.5160063849
  104      N       6.4186147171    -0.6379290432     2.0353160139
  105      C       7.5878241231    -0.0474361887     1.5326272154
  106      C       7.7789025487     0.0850781172     0.1572870970
  107      H       7.0257440856    -0.2840737139    -0.5273038443
  108      C       8.9244579260     0.6891330350    -0.3337884582
  109      H       9.0553916410     0.7861747758    -1.4040327800
  110      C       9.9059657521     1.1510390395     0.5318928047
  111      H      10.8020984033     1.6176082293     0.1450647078
  112      C       9.7232482855     1.0071082164     1.9003703191
  113      H      10.4766589112     1.3682470264     2.5885995894
  114      C       8.5720023687     0.4222284950     2.4017491138
  115      H       8.4315923134     0.3323229531     3.4713722657
  116      C       6.4828421454    -1.5691582829     3.0844209924
  117      C       5.5038293029    -1.5723972661     4.0781583708
  118      H       4.7044717227    -0.8428290154     4.0466381169
  119      C       5.5444341093    -2.5108305284     5.0955460776
  120      H       4.7739497874    -2.5024623210     5.8559022776
  121      C       6.5681438825    -3.4467727039     5.1529904112
  122      H       6.5994682770    -4.1752616224     5.9522131725
  123      C       7.5486595510    -3.4380668143     4.1714790264
  124      H       8.3481145969    -4.1674781623     4.1964833114
  125      C       7.5050672073    -2.5155235747     3.1382415714
  126      H       8.2635833108    -2.5352384954     2.3659490669
  127      C       2.2270236569    -2.4369600493     0.2022660250
  128      H       2.3884291822    -3.2113267908     0.9561718165
  129      H       1.1702880981    -2.1668378729     0.2775520088
  130      C       3.2117084774     2.5303210678     0.0412369603
  131      H       4.1107511280     3.1170491169    -0.1622870342
  132      H       2.6289795650     2.5453044478    -0.8841210876
  133      C       2.4969952033    -3.0249146247    -1.1827171851
  134      H       2.3060457026    -2.2976959859    -1.9718896799
  135      H       1.8559156191    -3.8879496315    -1.3685066274
  136      H       3.5332674092    -3.3515368310    -1.2769607445
  137      C       2.4061203792     3.2086390002     1.1474126300
  138      H       1.4694033985     2.6837372336     1.3358985103
  139      H       2.1584957243     4.2349717992     0.8745389082
  140      H       2.9671749748     3.2349337695     2.0821537198
 ----------------------------------------------------------------

   14   -3084.7999606714      5.40e-10  Convergence criterion met
 Total energy in the final basis set =    -3084.7999606714
 Final energy is   -3084.79996067140
 **  OPTIMIZATION CONVERGED  **

                    Orbital Energies (a.u.)
 --------------------------------------------------------------

 Alpha MOs
 -- Occupied --
-14.670 -14.669 -10.491 -10.490 -10.490 -10.490 -10.485 -10.484
-10.464 -10.464 -10.464 -10.464 -10.464 -10.464 -10.463 -10.463
-10.462 -10.462 -10.462 -10.462 -10.461 -10.461 -10.461 -10.460
-10.459 -10.459 -10.458 -10.458 -10.458 -10.458 -10.455 -10.454
-10.452 -10.452 -10.451 -10.450 -10.450 -10.449 -10.449 -10.449
-10.448 -10.448 -10.447 -10.447 -10.447 -10.447 -10.446 -10.446
-10.446 -10.445 -10.444 -10.444 -10.444 -10.444 -10.444 -10.444
-10.444 -10.442 -10.442 -10.442 -10.435 -10.435 -10.435 -10.434
-10.434 -10.434 -10.434 -10.433 -10.433 -10.433 -10.433 -10.432
-10.421 -10.421 -10.420 -10.420 -10.419 -10.418  -6.949  -6.949
 -1.079  -1.079  -1.016  -1.016  -0.964  -0.961  -0.960  -0.960
 -0.959  -0.959  -0.940  -0.940  -0.933  -0.932  -0.909  -0.900
 -0.889  -0.888  -0.868  -0.866  -0.854  -0.854  -0.851  -0.851
 -0.846  -0.846  -0.840  -0.839  -0.837  -0.837  -0.824  -0.822
 -0.819  -0.813  -0.812  -0.804  -0.800  -0.798  -0.791  -0.790
 -0.734  -0.730  -0.726  -0.720  -0.717  -0.716  -0.711  -0.710
 -0.699  -0.698  -0.698  -0.698  -0.688  -0.682  -0.681  -0.680
 -0.679  -0.673  -0.667  -0.665  -0.649  -0.647  -0.638  -0.636
 -0.631  -0.630  -0.605  -0.605  -0.595  -0.594  -0.591  -0.588
 -0.586  -0.585  -0.582  -0.575  -0.573  -0.562  -0.561  -0.554
 -0.554  -0.544  -0.543  -0.542  -0.541  -0.537  -0.527  -0.524
 -0.523  -0.523  -0.516  -0.512  -0.510  -0.507  -0.502  -0.502
 -0.501  -0.499  -0.497  -0.497  -0.496  -0.496  -0.494  -0.490
 -0.488  -0.487  -0.485  -0.484  -0.484  -0.483  -0.483  -0.481
 -0.481  -0.481  -0.477  -0.477  -0.475  -0.468  -0.466  -0.466
 -0.462  -0.455  -0.453  -0.450  -0.442  -0.439  -0.436  -0.435
 -0.434  -0.434  -0.431  -0.428  -0.427  -0.427  -0.426  -0.425
 -0.423  -0.421  -0.419  -0.417  -0.412  -0.411  -0.406  -0.405
 -0.405  -0.403  -0.399  -0.398  -0.397  -0.397  -0.396  -0.395
 -0.394  -0.393  -0.392  -0.391  -0.390  -0.387  -0.387  -0.385
 -0.379  -0.372  -0.367  -0.365  -0.356  -0.356  -0.351  -0.350
 -0.343  -0.339  -0.318  -0.313  -0.305  -0.303  -0.300  -0.299
 -0.296  -0.295  -0.295  -0.294  -0.287  -0.284  -0.280  -0.274
 -0.273  -0.261  -0.257  -0.255  -0.221  -0.220

          Ground-State Mulliken Net Atomic Charges

     Atom                 Charge (a.u.)
  ----------------------------------------
      1 C                    -0.150317
      2 C                    -0.398532
      3 H                     0.241845
      4 C                     0.103389
      5 C                     0.078827
      6 C                    -0.387381
      7 H                     0.236651
      8 C                    -0.155561
      9 C                     0.188424
     10 C                    -0.393204
     11 H                     0.235242
     12 C                    -0.064800
     13 C                     0.238303
     14 C                     0.187138
     15 C                    -0.383153
     16 H                     0.234947
     17 C                    -0.217896
     18 H                     0.242204
     19 C                    -0.345063
     20 H                     0.238097
     21 C                    -0.340598
     22 H                     0.237675
     23 C                    -0.220853
     24 H                     0.242527
     25 B                     0.654085
     26 C                    -0.152540
     27 C                    -0.392197
     28 H                     0.238879
     29 C                     0.104201
     30 C                     0.077115
     31 C                    -0.387285
     32 H                     0.239107
     33 C                    -0.153134
     34 C                     0.190873
     35 C                    -0.392548
     36 H                     0.234211
     37 C                    -0.065497
     38 C                     0.236309
     39 C                     0.188892
     40 C                    -0.384302
     41 H                     0.235972
     42 C                    -0.217775
     43 H                     0.241642
     44 C                    -0.344362
     45 H                     0.238118
     46 C                    -0.339746
     47 H                     0.237698
     48 C                    -0.220942
     49 H                     0.242935
     50 B                     0.658856
     51 C                    -0.232991
     52 C                     0.079417
     53 C                    -0.362229
     54 H                     0.241862
     55 C                     0.320617
     56 C                    -0.371702
     57 H                     0.244111
     58 C                     0.066605
     59 N                    -0.674774
     60 C                     0.277676
     61 C                    -0.279807
     62 H                     0.253145
     63 C                    -0.229900
     64 H                     0.236288
     65 C                    -0.249872
     66 H                     0.233684
     67 C                    -0.230314
     68 H                     0.235196
     69 C                    -0.279106
     70 H                     0.250420
     71 C                     0.293507
     72 C                    -0.289780
     73 H                     0.253784
     74 C                    -0.228147
     75 H                     0.235336
     76 C                    -0.252947
     77 H                     0.232521
     78 C                    -0.228960
     79 H                     0.235232
     80 C                    -0.285224
     81 H                     0.251936
     82 C                    -0.557651
     83 H                     0.239648
     84 H                     0.258697
     85 C                    -0.547513
     86 H                     0.236716
     87 H                     0.252280
     88 C                    -0.646876
     89 H                     0.230682
     90 H                     0.225031
     91 H                     0.220799
     92 C                    -0.649043
     93 H                     0.238761
     94 H                     0.220278
     95 H                     0.222574
     96 C                    -0.217036
     97 C                     0.080285
     98 C                    -0.357400
     99 H                     0.239686
    100 C                     0.301233
    101 C                    -0.365625
    102 H                     0.241760
    103 C                     0.066626
    104 N                    -0.671993
    105 C                     0.297199
    106 C                    -0.289895
    107 H                     0.251733
    108 C                    -0.228194
    109 H                     0.232485
    110 C                    -0.253199
    111 H                     0.231963
    112 C                    -0.229198
    113 H                     0.235219
    114 C                    -0.287057
    115 H                     0.253632
    116 C                     0.289547
    117 C                    -0.281847
    118 H                     0.250539
    119 C                    -0.228240
    120 H                     0.234177
    121 C                    -0.252703
    122 H                     0.232451
    123 C                    -0.229459
    124 H                     0.235534
    125 C                    -0.288930
    126 H                     0.253896
    127 C                    -0.560375
    128 H                     0.240398
    129 H                     0.259546
    130 C                    -0.548163
    131 H                     0.237131
    132 H                     0.251340
    133 C                    -0.652813
    134 H                     0.245004
    135 H                     0.221969
    136 H                     0.220528
    137 C                    -0.651942
    138 H                     0.239165
    139 H                     0.225370
    140 H                     0.219207
  ----------------------------------------
  Sum of atomic charges =    -0.000000

                    Cartesian Multipole Moments
 -----------------------------------------------------------------
    Charge (ESU x 10^10)
                -0.0000
    Dipole Moment (Debye)
         X      -0.6029      Y       0.1954      Z      -0.1901
       Tot       0.6617
    Quadrupole Moments (Debye-Ang)
        XX    -411.4183     XY       0.5883     YY    -460.3822
        XZ     -14.0720     YZ      -1.8639     ZZ    -399.4004

 Total job time:  127064.52s(wall), 460084.09s(cpu)
        *  Thank you very much for using Q-Chem.  Have a nice day.  *
