 Q-Chem 5.1, Q-Chem, Inc., Pleasanton, CA (2018)
 Q-Chem 5.1.1 for Intel X86 EM64T Linux

User input:
--------------------------------------------------------------
$rem
threads 4
jobtype	opt
method PBEh-3c
basis def2-mSVP
mem_static	1024
mem_total	4000
sym_ignore	true
scf_convergence	9
solvent_method	pcm
$end

$molecule
read gsopt.mol
$end

$solvent
dielectric	2.03
$end

$pcm
theory iefpcm
$end
--------------------------------------------------------------

   17   -3084.7974195198      4.90e-10  Convergence criterion met
 Total energy in the final basis set =    -3084.7974195198
   14   -3084.7973063575      9.29e-10  Convergence criterion met
 Total energy in the final basis set =    -3084.7973063575
   15   -3084.7962106377      4.20e-10  Convergence criterion met
 Total energy in the final basis set =    -3084.7962106377
   14   -3084.7972520772      8.43e-10  Convergence criterion met
 Total energy in the final basis set =    -3084.7972520772
   14   -3084.7967845997      9.39e-10  Convergence criterion met
 Total energy in the final basis set =    -3084.7967845997
   14   -3084.7973656644      7.59e-10  Convergence criterion met
 Total energy in the final basis set =    -3084.7973656644
   14   -3084.7971244899      6.27e-10  Convergence criterion met
 Total energy in the final basis set =    -3084.7971244899
   14   -3084.7973049601      5.98e-10  Convergence criterion met
   14   -3084.7970838648      5.01e-10  Convergence criterion met
 Total energy in the final basis set =    -3084.7970838648
   14   -3084.7970928804      5.30e-10  Convergence criterion met
 Total energy in the final basis set =    -3084.7970928804
   14   -3084.7970845083      5.24e-10  Convergence criterion met
 Total energy in the final basis set =    -3084.7970845083
   14   -3084.7971187952      5.21e-10  Convergence criterion met
 Total energy in the final basis set =    -3084.7971187952
   14   -3084.7971387859      5.07e-10  Convergence criterion met
 Total energy in the final basis set =    -3084.7971387859
   14   -3084.7971485985      5.11e-10  Convergence criterion met
 Total energy in the final basis set =    -3084.7971485985

             Standard Nuclear Orientation (Angstroms)
    I     Atom           X                Y                Z
 ----------------------------------------------------------------
    1      C       0.0237801720     0.2554997665     0.1804003888
    2      C       0.0229063556     0.2901517852     1.5806127056
    3      H       0.9654348966     0.3139848432     2.1167576655
    4      C      -1.1762158356     0.2914225711     2.2737200003
    5      C      -2.3938789801     0.2321492724     1.5598052525
    6      C      -2.4042430281     0.1764390178     0.1797420691
    7      H      -3.3440289958     0.1111703740    -0.3579214333
    8      C      -1.2015577702     0.2000260482    -0.5265204091
    9      C      -1.5005244827     0.3391337114     3.7038773347
   10      C      -0.7854256121     0.4090377762     4.8697216909
   11      H       0.2968966109     0.4411870100     4.8768621097
   12      C      -2.9066949031     0.3041984230     3.7890657189
   13      C      -3.6315631908     0.3339784760     4.9743886935
   14      C      -3.4962538800     0.2372422858     2.5143677656
   15      C      -4.8621894476     0.1946004742     2.4126362944
   16      H      -5.3641354482     0.1411951989     1.4540624557
   17      C      -1.4936898159     0.4416567486     6.0960107006
   18      H      -0.9262024050     0.4980568573     7.0155768680
   19      C      -2.8672691471     0.4057581407     6.1631717775
   20      H      -3.3617315709     0.4333279722     7.1263491257
   21      C      -5.0422100497     0.2895513084     4.8478284269
   22      H      -5.6661313630     0.3090382677     5.7329943968
   23      C      -5.6251588192     0.2213555477     3.6032924522
   24      H      -6.7043842222     0.1873768673     3.5283314126
   25      B       1.3640793725     0.2522171830    -0.6111179160
   26      C       1.3506450895     0.3693971985    -2.1636621226
   27      C       2.5508456868     0.4678825626    -2.8789862935
   28      H       3.4949260711     0.4860539445    -2.3459775097
   29      C       2.5312239285     0.5317372009    -4.2603934668
   30      C       1.2973732040     0.4645361135    -4.9460240692
   31      C       0.1105491796     0.3398895355    -4.2537027163
   32      H      -0.8285951336     0.2637888436    -4.7908166908
   33      C       0.1199083161     0.3047339398    -2.8585730694
   34      C       3.5948610200     0.6467393627    -5.2657258957
   35      C       4.9605827762     0.7532704380    -5.2439826071
   36      H       5.5191616121     0.7665763239    -4.3164431217
   37      C       2.9508666183     0.6418771759    -6.5189314279
   38      C       3.6008625218     0.7357639730    -7.7452909135
   39      C       1.5559619362     0.5324300047    -6.3814675707
   40      C       0.7764966823     0.5143771361    -7.5093431006
   41      H      -0.3025725732     0.4327909867    -7.4592695461
   42      C       5.6530041609     0.8499070023    -6.4760491325
   43      H       6.7316490378     0.9336404285    -6.4544516831
   44      C       5.0106068779     0.8427897229    -7.6923471214
   45      H       5.5843985001     0.9201041890    -8.6078174325
   46      C       2.7771018007     0.7150500793    -8.8978392704
   47      H       3.2222857892     0.7842247310    -9.8829573768
   48      C       1.4117703417     0.6069914990    -8.7701298973
   49      H       0.7983092998     0.5926830124    -9.6617974816
   50      B      -1.2164142393     0.1410139801    -2.0810449754
   51      C      -2.5535435764    -0.1306482735    -2.8637691171
   52      C      -3.3032495990     0.8996478336    -3.4450682290
   53      C      -4.4582781489     0.6119535846    -4.1611135246
   54      H      -5.0144591884     1.4219111510    -4.6194773901
   55      C      -4.9154418129    -0.6954318257    -4.2874011640
   56      C      -4.1818743784    -1.7184235045    -3.6964452116
   57      H      -4.5270567510    -2.7433008885    -3.7769293787
   58      C      -3.0063475761    -1.4495453249    -3.0101893307
   59      N      -6.0997003547    -0.9733089033    -4.9911964035
   60      C      -7.2051053733    -0.1108344865    -4.8746754275
   61      C      -7.9298397801     0.2497427195    -6.0089485855
   62      H      -7.6264347416    -0.1236888508    -6.9788602097
   63      C      -9.0370490575     1.0746546880    -5.8974784498
   64      H      -9.5918012587     1.3428799843    -6.7874172822
   65      C      -9.4256792642     1.5681052729    -4.6600058147
   66      H     -10.2871875606     2.2172047235    -4.5763685754
   67      C      -8.6985047145     1.2188084113    -3.5306569989
   68      H      -8.9963486312     1.5896878199    -2.5583686722
   69      C      -7.6018292786     0.3776686466    -3.6311222952
   70      H      -7.0517449794     0.0938860244    -2.7430072965
   71      C      -6.2309306339    -2.1538474702    -5.7420810669
   72      C      -7.4103578126    -2.8961439417    -5.6879526756
   73      H      -8.2257671117    -2.5660514482    -5.0571455608
   74      C      -7.5442998937    -4.0543145364    -6.4365231620
   75      H      -8.4676302133    -4.6166778569    -6.3811508317
   76      C      -6.5029568011    -4.5038079897    -7.2355029273
   77      H      -6.6075411891    -5.4130396036    -7.8123850534
   78      C      -5.3250422391    -3.7712564706    -7.2849044427
   79      H      -4.5054544351    -4.1041112138    -7.9088539035
   80      C      -5.1895966381    -2.6011690702    -6.5556007776
   81      H      -4.2707708188    -2.0317292690    -6.6129896041
   82      C      -2.2078055400    -2.6150851476    -2.4849352879
   83      H      -2.8852246972    -3.3739199213    -2.0843997845
   84      H      -1.5790011191    -2.3078068077    -1.6447526058
   85      C      -2.9173576209     2.3452109044    -3.2701315134
   86      H      -3.0572908856     2.8816217023    -4.2126177298
   87      H      -1.8543390145     2.4358801708    -3.0313641837
   88      C      -3.7424085841     3.0230125247    -2.1784309755
   89      H      -3.5968074890     2.5333712768    -1.2150744247
   90      H      -3.4602975108     4.0701884444    -2.0653196081
   91      H      -4.8072357891     2.9857612154    -2.4128109529
   92      C      -1.3344481815    -3.2401477077    -3.5709544651
   93      H      -0.6280299965    -2.5135760928    -3.9737906839
   94      H      -1.9423516341    -3.6080053178    -4.3986526596
   95      H      -0.7611509315    -4.0802777421    -3.1771890108
   96      C       2.7262200924     0.0507787300     0.1337122867
   97      C       3.6004190931     1.1160817325     0.3883771814
   98      C       4.8106419449     0.8859869552     1.0301417672
   99      H       5.4724020243     1.7182103046     1.2430458238
  100      C       5.1860171765    -0.4015881897     1.3979310423
  101      C       4.3256245927    -1.4596529838     1.1294343833
  102      H       4.6158775349    -2.4680942341     1.4020157185
  103      C       3.0994550958    -1.2453918850     0.5168273052
  104      N       6.4189599883    -0.6354608934     2.0351701254
  105      C       7.5877456839    -0.0438667217     1.5329365731
  106      C       7.7792448973     0.0886093539     0.1577177744
  107      H       7.0264610839    -0.2813936146    -0.5267830933
  108      C       8.9243602718     0.6935883718    -0.3329334752
  109      H       9.0557151638     0.7905945341    -1.4031122271
  110      C       9.9050275226     1.1564842747     0.5329841542
  111      H      10.8008709977     1.6237877891     0.1464458738
  112      C       9.7219296547     1.0125838868     1.9013009896
  113      H      10.4747786276     1.3744839971     2.5897106052
  114      C       8.5711310589     0.4267733316     2.4023168398
  115      H       8.4301972917     0.3366074589     3.4718209955
  116      C       6.4837326158    -1.5659426464     3.0848104926
  117      C       5.5040995149    -1.5700747569     4.0778526249
  118      H       4.7037266983    -0.8417277971     4.0449845952
  119      C       5.5454313480    -2.5077768118     5.0957320097
  120      H       4.7744236401    -2.5001688128     5.8555418193
  121      C       6.5704096206    -3.4420814339     5.1544646891
  122      H       6.6022673631    -4.1700216522     5.9541305694
  123      C       7.5514924203    -3.4324986025     4.1736883108
  124      H       8.3519991313    -4.1606889015     4.1997108584
  125      C       7.5072548568    -2.5107418387     3.1399213724
  126      H       8.2662687004    -2.5294854811     2.3681252245
  127      C       2.2278363898    -2.4372967513     0.2042287690
  128      H       2.3901523395    -3.2112423822     0.9583937963
  129      H       1.1710391554    -2.1676879065     0.2804210622
  130      C       3.2108186769     2.5300168666     0.0387903455
  131      H       4.1096718819     3.1172537618    -0.1642038776
  132      H       2.6291009883     2.5441788065    -0.8872187255
  133      C       2.4970175121    -3.0255793186    -1.1807465419
  134      H       2.3048025605    -2.2989005636    -1.9700726992
  135      H       1.8566022194    -3.8892787904    -1.3657083535
  136      H       3.5334832882    -3.3512650200    -1.2758335146
  137      C       2.4036720666     3.2082913793     1.1438289876
  138      H       1.4668497010     2.6832319319     1.3312496587
  139      H       2.1560371673     4.2345367582     0.8706582847
  140      H       2.9635470035     3.2347874005     2.0792490289
 ----------------------------------------------------------------

   14   -3084.7971560621      4.86e-10  Convergence criterion met
 Total energy in the final basis set =    -3084.7971560621
 Final energy is   -3084.79715606209
 **  OPTIMIZATION CONVERGED  **

                    Orbital Energies (a.u.)
 --------------------------------------------------------------

 Alpha MOs
 -- Occupied --
-14.669 -14.668 -10.490 -10.490 -10.490 -10.489 -10.485 -10.483
-10.464 -10.464 -10.464 -10.464 -10.464 -10.464 -10.463 -10.463
-10.462 -10.462 -10.461 -10.461 -10.461 -10.461 -10.461 -10.460
-10.459 -10.459 -10.458 -10.458 -10.458 -10.458 -10.454 -10.454
-10.452 -10.451 -10.450 -10.449 -10.449 -10.449 -10.449 -10.448
-10.447 -10.447 -10.447 -10.447 -10.447 -10.447 -10.446 -10.446
-10.446 -10.445 -10.444 -10.444 -10.444 -10.444 -10.444 -10.444
-10.444 -10.442 -10.442 -10.442 -10.435 -10.434 -10.434 -10.434
-10.434 -10.433 -10.433 -10.433 -10.433 -10.433 -10.433 -10.432
-10.420 -10.420 -10.420 -10.419 -10.418 -10.417  -6.949  -6.948
 -1.079  -1.079  -1.016  -1.015  -0.964  -0.961  -0.960  -0.960
 -0.959  -0.958  -0.940  -0.939  -0.932  -0.932  -0.908  -0.900
 -0.888  -0.887  -0.868  -0.866  -0.854  -0.854  -0.851  -0.850
 -0.846  -0.846  -0.840  -0.839  -0.837  -0.837  -0.824  -0.822
 -0.819  -0.813  -0.812  -0.804  -0.800  -0.798  -0.791  -0.790
 -0.734  -0.730  -0.726  -0.720  -0.717  -0.715  -0.710  -0.709
 -0.698  -0.698  -0.698  -0.697  -0.688  -0.682  -0.680  -0.680
 -0.679  -0.673  -0.667  -0.664  -0.649  -0.647  -0.638  -0.636
 -0.631  -0.630  -0.605  -0.604  -0.594  -0.594  -0.591  -0.588
 -0.586  -0.585  -0.582  -0.574  -0.573  -0.562  -0.561  -0.554
 -0.553  -0.543  -0.543  -0.541  -0.541  -0.537  -0.527  -0.524
 -0.523  -0.522  -0.516  -0.511  -0.510  -0.507  -0.502  -0.502
 -0.501  -0.498  -0.497  -0.496  -0.496  -0.495  -0.494  -0.489
 -0.488  -0.487  -0.485  -0.484  -0.484  -0.483  -0.483  -0.481
 -0.481  -0.481  -0.477  -0.477  -0.475  -0.468  -0.466  -0.466
 -0.461  -0.455  -0.453  -0.450  -0.442  -0.439  -0.435  -0.434
 -0.434  -0.434  -0.431  -0.428  -0.427  -0.426  -0.425  -0.425
 -0.423  -0.421  -0.419  -0.417  -0.412  -0.411  -0.406  -0.405
 -0.404  -0.402  -0.399  -0.398  -0.397  -0.397  -0.396  -0.395
 -0.394  -0.393  -0.392  -0.391  -0.390  -0.387  -0.386  -0.384
 -0.379  -0.372  -0.367  -0.364  -0.356  -0.355  -0.351  -0.350
 -0.342  -0.339  -0.318  -0.312  -0.305  -0.303  -0.299  -0.299
 -0.296  -0.295  -0.294  -0.294  -0.286  -0.284  -0.279  -0.274
 -0.273  -0.261  -0.257  -0.255  -0.221  -0.220

          Ground-State Mulliken Net Atomic Charges

     Atom                 Charge (a.u.)
  ----------------------------------------
      1 C                    -0.150258
      2 C                    -0.398123
      3 H                     0.240521
      4 C                     0.104961
      5 C                     0.080344
      6 C                    -0.386925
      7 H                     0.235351
      8 C                    -0.155359
      9 C                     0.189997
     10 C                    -0.392243
     11 H                     0.232350
     12 C                    -0.064571
     13 C                     0.240983
     14 C                     0.188679
     15 C                    -0.382128
     16 H                     0.232050
     17 C                    -0.215388
     18 H                     0.239528
     19 C                    -0.343925
     20 H                     0.235164
     21 C                    -0.339414
     22 H                     0.234745
     23 C                    -0.218382
     24 H                     0.239840
     25 B                     0.654355
     26 C                    -0.152503
     27 C                    -0.391767
     28 H                     0.237593
     29 C                     0.105754
     30 C                     0.078590
     31 C                    -0.386898
     32 H                     0.237878
     33 C                    -0.152971
     34 C                     0.192446
     35 C                    -0.391562
     36 H                     0.231313
     37 C                    -0.065261
     38 C                     0.239002
     39 C                     0.190430
     40 C                    -0.383332
     41 H                     0.233171
     42 C                    -0.215253
     43 H                     0.238946
     44 C                    -0.343232
     45 H                     0.235179
     46 C                    -0.338563
     47 H                     0.234759
     48 C                    -0.218483
     49 H                     0.240271
     50 B                     0.659143
     51 C                    -0.233084
     52 C                     0.080190
     53 C                    -0.360970
     54 H                     0.240603
     55 C                     0.320428
     56 C                    -0.370501
     57 H                     0.243003
     58 C                     0.067842
     59 N                    -0.674910
     60 C                     0.277922
     61 C                    -0.278296
     62 H                     0.251750
     63 C                    -0.227550
     64 H                     0.233813
     65 C                    -0.247568
     66 H                     0.231235
     67 C                    -0.227951
     68 H                     0.232616
     69 C                    -0.277660
     70 H                     0.248832
     71 C                     0.293573
     72 C                    -0.288211
     73 H                     0.252493
     74 C                    -0.225782
     75 H                     0.232869
     76 C                    -0.250552
     77 H                     0.230097
     78 C                    -0.226610
     79 H                     0.232732
     80 C                    -0.283743
     81 H                     0.250388
     82 C                    -0.557450
     83 H                     0.238659
     84 H                     0.258545
     85 C                    -0.547358
     86 H                     0.235714
     87 H                     0.252178
     88 C                    -0.645700
     89 H                     0.230745
     90 H                     0.224261
     91 H                     0.220378
     92 C                    -0.647878
     93 H                     0.239099
     94 H                     0.219803
     95 H                     0.221708
     96 C                    -0.217107
     97 C                     0.081062
     98 C                    -0.356226
     99 H                     0.238344
    100 C                     0.301181
    101 C                    -0.364519
    102 H                     0.240590
    103 C                     0.067912
    104 N                    -0.672137
    105 C                     0.297190
    106 C                    -0.288135
    107 H                     0.250190
    108 C                    -0.225775
    109 H                     0.229773
    110 C                    -0.250737
    111 H                     0.229515
    112 C                    -0.226857
    113 H                     0.232745
    114 C                    -0.285439
    115 H                     0.252232
    116 C                     0.289586
    117 C                    -0.280080
    118 H                     0.248923
    119 C                    -0.225852
    120 H                     0.231575
    121 C                    -0.250280
    122 H                     0.230004
    123 C                    -0.227092
    124 H                     0.233053
    125 C                    -0.287414
    126 H                     0.252558
    127 C                    -0.560244
    128 H                     0.239408
    129 H                     0.259466
    130 C                    -0.548039
    131 H                     0.236096
    132 H                     0.251278
    133 C                    -0.651663
    134 H                     0.245455
    135 H                     0.221031
    136 H                     0.220058
    137 C                    -0.650873
    138 H                     0.239452
    139 H                     0.224582
    140 H                     0.218703
  ----------------------------------------
  Sum of atomic charges =    -0.000000

                    Cartesian Multipole Moments
 -----------------------------------------------------------------
    Charge (ESU x 10^10)
                -0.0000
    Dipole Moment (Debye)
         X      -0.5909      Y       0.1873      Z      -0.1854
       Tot       0.6470
    Quadrupole Moments (Debye-Ang)
        XX    -412.8408     XY       0.5789     YY    -460.7919
        XZ     -13.7728     YZ      -1.8201     ZZ    -400.9642

 Total job time:  114445.43s(wall), 420844.59s(cpu)
        *  Thank you very much for using Q-Chem.  Have a nice day.  *
