 Q-Chem 5.1, Q-Chem, Inc., Pleasanton, CA (2018)
 Q-Chem 5.1.1 for Intel X86 EM64T Linux

User input:
--------------------------------------------------------------
$solvent
dielectric      4.33
dielectric_infi 1.83
$end

$rem
threads 8
jobtype	sp
method PBEh-3c
basis def2-mSVP
mem_static	1024
mem_total	14000
sym_ignore	true
cis_n_roots             2
cis_singlets            true
cis_triplets		false
rpa                     false
calc_soc 		true
cis_moments             true
cis_relaxed_density	true
solvent_method		pcm
$end

$pcm
StateSpecific   1
ChargeSeparation Excited
$end

$molecule
read moms1opt_eth.mol
$end

--------------------------------------------------------------

   15   -3084.8054973194      5.56e-09  Convergence criterion met
 Total energy in the final basis set =    -3084.8054973194
 Total job time:  19893.29s(wall), 54326.30s(cpu)
        *  Thank you very much for using Q-Chem.  Have a nice day.  *
 Q-Chem 5.1, Q-Chem, Inc., Pleasanton, CA (2018)
 Q-Chem 5.1.1 for Intel X86 EM64T Linux

User input:
--------------------------------------------------------------
$rem
threads 8
jobtype sp
method PBEh-3c
basis def2-mSVP
mem_static      1024
mem_total       14000
sym_ignore      true
cis_n_roots             6
cis_singlets            true
cis_triplets            true
rpa                     false
calc_soc                true
cis_moments             true
cis_relaxed_density     true
solvent_method          pcm
$end

$molecule
read
$end

$pcm
statespecific           Marcus
$end

$solvent
dielectric      4.33
dielectric_infi 1.83
$end

--------------------------------------------------------------

             Standard Nuclear Orientation (Angstroms)
    I     Atom           X                Y                Z
 ----------------------------------------------------------------
    1      C       0.0000000000     0.0000000000     0.0000000000
    2      C       0.0000000000     0.0000000000     1.4130270000
    3      H       0.9461334079     0.0000000000     1.9440965572
    4      C      -1.1782061779     0.0115858722     2.1202528005
    5      C      -2.4184998878     0.0320400859     1.4166376749
    6      C      -2.4440768447     0.0522408677     0.0473154952
    7      H      -3.4006737400     0.0866588405    -0.4659592035
    8      C      -1.2461648450     0.0375066690    -0.6957891699
    9      C      -3.5017295840     0.0557373038     2.3923378496
   10      C      -4.8733643097     0.0835991485     2.3220897320
   11      H      -5.3967979154     0.0842837403     1.3734030725
   12      C      -2.8889115692     0.0543965392     3.6605440904
   13      C      -3.5943922720     0.0840411082     4.8618415166
   14      C      -1.4818613956     0.0277015919     3.5532441593
   15      C      -0.7504103736     0.0301006542     4.7152755018
   16      H       0.3324832529     0.0105185842     4.7078673018
   17      C      -5.6129826864     0.1116833603     3.5268066583
   18      H      -6.6943053019     0.1330062189     3.4708193091
   19      C      -5.0079179009     0.1129887574     4.7633694981
   20      H      -5.6134246998     0.1365400074     5.6614540791
   21      C      -2.8125123321     0.0855506456     6.0418658548
   22      H      -3.2929756430     0.1081321104     7.0125754613
   23      C      -1.4390380261     0.0593383627     5.9518726194
   24      H      -0.8558911871     0.0610304744     6.8640513787
   25      B      -1.2714900474     0.1102810659    -2.2230345531
   26      C       0.0342097286     0.0403074267    -3.0152102769
   27      C       0.0310270582     0.0740972364    -4.4247187253
   28      H      -0.9121358894     0.1415183478    -4.9596912483
   29      C       1.2060234366     0.0230563104    -5.1290126914
   30      C       2.4591662328    -0.0524805623    -4.4501260321
   31      C       2.4841431290    -0.0667596442    -3.0745998795
   32      H       3.4335048020    -0.1076855162    -2.5494400621
   33      C       1.2867621736    -0.0213167743    -2.3266837622
   34      C       1.4592536646     0.0351994727    -6.5640708762
   35      C       0.6708981440     0.0943809453    -7.6870199765
   36      H      -0.4094226392     0.1476374891    -7.6240002493
   37      C       2.8573679945    -0.0336351281    -6.7185868123
   38      C       3.5006437823    -0.0451594104    -7.9532780682
   39      C       3.5096272449    -0.0887406240    -5.4680477851
   40      C       4.8802299305    -0.1589118303    -5.4618045647
   41      H       5.4448916652    -0.2041877022    -4.5389816987
   42      C       1.2988149642     0.0840317413    -8.9531785171
   43      H       0.6787234568     0.1304469973    -9.8397939120
   44      C       2.6666785362     0.0169012216    -9.0976592901
   45      H       3.1048745908     0.0111859884   -10.0883919026
   46      C       5.5636251930    -0.1722347260    -6.7013593025
   47      H       6.6447093590    -0.2279300599    -6.6903356322
   48      C       4.9140819207    -0.1180153295    -7.9141012572
   49      H       5.4835148538    -0.1313003854    -8.8354392620
   50      B       1.3207948405     0.0106149476    -0.7904224161
   51      C       2.6757962670     0.1510093289     0.0077890551
   52      C       3.2353887728    -0.9303360256     0.7053824627
   53      C       4.3529573305    -0.7434511222     1.5111422594
   54      H       4.7728395790    -1.5793285540     2.0602753912
   55      C       4.9222906190     0.5140390508     1.6463784154
   56      C       4.3964386050     1.5813986009     0.9345830504
   57      H       4.8433656932     2.5646031060     1.0386566274
   58      C       3.2861877046     1.4112487914     0.1157897425
   59      N       5.9887013700     0.7122670973     2.5589648616
   60      C       7.1475967742     1.3626310585     2.1253614454
   61      C       7.8397089701     2.2564341400     2.9462831964
   62      H       7.4837391978     2.4622711805     3.9470739871
   63      C       8.9772344268     2.8980932412     2.4824194152
   64      H       9.4944581476     3.5887803734     3.1365234579
   65      C       9.4404816189     2.6829523102     1.1924944615
   66      H      10.3236497206     3.1934823194     0.8322367501
   67      C       8.7471002417     1.8046470020     0.3698593081
   68      H       9.0906332575     1.6214058333    -0.6404093197
   69      C       7.6198193747     1.1439945426     0.8278523720
   70      H       7.0969087685     0.4576915996     0.1740624288
   71      C       5.7090874303     0.5162957199     3.9211696041
   72      C       6.6783653387    -0.0016510992     4.7810227728
   73      H       7.6599644454    -0.2492013578     4.3973358574
   74      C       6.3880632609    -0.2059223661     6.1201759056
   75      H       7.1524670790    -0.6101517153     6.7715487207
   76      C       5.1257797177     0.0806853916     6.6235153280
   77      H       4.9003602971    -0.0902612985     7.6678409013
   78      C       4.1562719145     0.5835801685     5.7675952973
   79      H       3.1670300115     0.8152363417     6.1423929222
   80      C       4.4423446547     0.8083783155     4.4302370200
   81      H       3.6771499748     1.2099728224     3.7778595807
   82      C       2.6597007355    -2.3160973104     0.5634070544
   83      H       1.5683775716    -2.2680253087     0.5426821742
   84      H       2.9236392632    -2.9139674125     1.4393965232
   85      C       2.7124451814     2.6292535689    -0.5683420034
   86      H       2.3083854047     2.3602306176    -1.5460012252
   87      H       3.5153694086     3.3467588340    -0.7569126355
   88      C       3.1502168338    -3.0222766736    -0.6987685538
   89      H       2.8575376103    -2.4740016401    -1.5945900607
   90      H       2.7296025810    -4.0260644763    -0.7732812634
   91      H       4.2374706490    -3.1118554439    -0.7021470887
   92      C       1.6175798733     3.3106574883     0.2522335716
   93      H       0.7764632061     2.6392572154     0.4251529353
   94      H       1.9943452213     3.6307521274     1.2249527105
   95      H       1.2372992260     4.1925655530    -0.2661272993
   96      C      -2.6567944301     0.3897355912    -2.9445363866
   97      C      -3.0304643265     1.7335895730    -3.2025416139
   98      C      -4.2454007912     2.0209349639    -3.7778507891
   99      H      -4.4996058536     3.0480411562    -4.0098746115
  100      C      -5.1371543046     0.9880992459    -4.1211060815
  101      N      -6.3486887261     1.2905485000    -4.6854903007
  102      C      -4.7739425407    -0.3501457544    -3.8760783080
  103      H      -5.4765000213    -1.1451503999    -4.0950082581
  104      C      -3.5618377846    -0.6450922728    -3.2947722662
  105      C      -6.9793700063     0.4063181077    -5.5835351192
  106      C      -6.2341802926    -0.2029354233    -6.5923299152
  107      H      -5.1766325672     0.0051541221    -6.6908048304
  108      C      -6.8681674894    -1.0439715311    -7.4896979949
  109      H      -6.2952320888    -1.5078739288    -8.2808723758
  110      C      -8.2339280969    -1.2749354322    -7.3876785816
  111      H      -8.7253718034    -1.9309779977    -8.0934782311
  112      C      -8.9716836745    -0.6587430289    -6.3836651302
  113      H     -10.0342709897    -0.8417789372    -6.2995179433
  114      C      -8.3525374522     0.1860592522    -5.4811501829
  115      H      -8.9248984756     0.6580269182    -4.6931854186
  116      C      -6.9855036380     2.5176136122    -4.4056093178
  117      C      -7.5291659402     3.2628399534    -5.4505191923
  118      H      -7.4449405420     2.9143000487    -6.4715653424
  119      C      -8.1501386828     4.4669559063    -5.1729483698
  120      H      -8.5592034570     5.0548484995    -5.9833381876
  121      C      -8.2386215266     4.9248406688    -3.8636564283
  122      H      -8.7273040439     5.8664818222    -3.6524794976
  123      C      -7.7034261143     4.1728921183    -2.8257770666
  124      H      -7.7832201277     4.5198354557    -1.8045813964
  125      C      -7.0765073618     2.9674305978    -3.0888097980
  126      H      -6.6802719185     2.3685367891    -2.2789637256
  127      C      -3.2123729077    -2.0867566492    -3.0520687867
  128      H      -2.5608765849    -2.1718126472    -2.1805918917
  129      H      -4.1212162240    -2.6463546894    -2.8180514666
  130      C      -2.1403696096     2.8862701505    -2.8211893476
  131      H      -1.1044299000     2.5557419821    -2.7425529603
  132      H      -2.1663508051     3.6403585223    -3.6122736788
  133      C      -2.5296097076    -2.7105036639    -4.2671316912
  134      H      -1.5991872249    -2.1945152522    -4.5024539703
  135      H      -2.2902018843    -3.7568672566    -4.0787070108
  136      H      -3.1740874432    -2.6652711789    -5.1465314394
  137      C      -2.5767744202     3.5197408956    -1.5014016233
  138      H      -2.5512206005     2.7926214074    -0.6899724677
  139      H      -1.9125021934     4.3413582664    -1.2333928078
  140      H      -3.5910495036     3.9171981774    -1.5685143909
 ----------------------------------------------------------------

   15   -3084.7980252285      6.34e-09  Convergence criterion met
 Total energy in the final basis set =    -3084.7980252285

         TDDFT/TDA Excitation Energies
 ---------------------------------------------------

 Excited state   1: excitation energy (eV) =    1.7411
 Total energy for state  1:                 -3084.73404018 au
    Multiplicity: Triplet
    Trans. Mom.:  0.0000 X   0.0000 Y   0.0000 Z
    Strength   :     0.0000000000
    D(270) --> V(  1) amplitude =  0.9723

 Excited state   2: excitation energy (eV) =    1.7615
 Total energy for state  2:                 -3084.73328995 au
    Multiplicity: Singlet
    Trans. Mom.:  0.1976 X  -0.0431 Y   0.2400 Z
    Strength   :     0.0042507901
    D(270) --> V(  1) amplitude =  0.9769

 Excited state   3: excitation energy (eV) =    2.2399
 Total energy for state  3:                 -3084.71571073 au
    Multiplicity: Triplet
    Trans. Mom.:  0.0000 X   0.0000 Y   0.0000 Z
    Strength   :     0.0000000000
    D(267) --> V(  1) amplitude =  0.8898

 Excited state   4: excitation energy (eV) =    2.4287
 Total energy for state  4:                 -3084.70877375 au
    Multiplicity: Triplet
    Trans. Mom.:  0.0000 X   0.0000 Y   0.0000 Z
    Strength   :     0.0000000000
    D(265) --> V(  2) amplitude = -0.4564
    D(268) --> V(  1) amplitude =  0.7653

 Excited state   5: excitation energy (eV) =    2.4796
 Total energy for state  5:                 -3084.70690258 au
    Multiplicity: Triplet
    Trans. Mom.:  0.0000 X   0.0000 Y   0.0000 Z
    Strength   :     0.0000000000
    D(265) --> V(  1) amplitude = -0.7029
    D(268) --> V(  2) amplitude =  0.4980
    D(269) --> V(  1) amplitude =  0.2916

 Excited state   6: excitation energy (eV) =    2.5768
 Total energy for state  6:                 -3084.70332891 au
    Multiplicity: Triplet
    Trans. Mom.:  0.0000 X   0.0000 Y   0.0000 Z
    Strength   :     0.0000000000
    D(260) --> V(  1) amplitude =  0.2296
    D(269) --> V(  1) amplitude =  0.8899

 Excited state   7: excitation energy (eV) =    2.5986
 Total energy for state  7:                 -3084.70253016 au
    Multiplicity: Singlet
    Trans. Mom.:  0.5833 X   0.0515 Y   0.2361 Z
    Strength   :     0.0253777909
    D(269) --> V(  1) amplitude =  0.9727

 Excited state   8: excitation energy (eV) =    2.7503
 Total energy for state  8:                 -3084.69695357 au
    Multiplicity: Triplet
    Trans. Mom.:  0.0000 X   0.0000 Y   0.0000 Z
    Strength   :     0.0000000000
    D(259) --> V(  1) amplitude = -0.3628
    D(260) --> V(  1) amplitude =  0.5682
    D(267) --> V(  2) amplitude =  0.5334

 Excited state   9: excitation energy (eV) =    2.9063
 Total energy for state  9:                 -3084.69122124 au
    Multiplicity: Singlet
    Trans. Mom.: -0.1570 X  -0.0155 Y   0.2963 Z
    Strength   :     0.0080214134
    D(267) --> V(  1) amplitude =  0.9429

 Excited state  10: excitation energy (eV) =    2.9865
 Total energy for state 10:                 -3084.68827376 au
    Multiplicity: Singlet
    Trans. Mom.: -0.0780 X  -0.0038 Y  -0.2366 Z
    Strength   :     0.0045436676
    D(270) --> V(  2) amplitude =  0.9943

 Excited state  11: excitation energy (eV) =    3.1246
 Total energy for state 11:                 -3084.68319670 au
    Multiplicity: Singlet
    Trans. Mom.: -1.8542 X   0.0319 Y   3.3616 Z
    Strength   :     1.1283358322
    D(268) --> V(  1) amplitude =  0.9375

 Excited state  12: excitation energy (eV) =    3.3127
 Total energy for state 12:                 -3084.67628637 au
    Multiplicity: Singlet
    Trans. Mom.:  0.3980 X  -0.0303 Y  -0.6774 Z
    Strength   :     0.0501659237
    D(266) --> V(  1) amplitude = -0.9606

 ---------------------------------------------------

                    Orbital Energies (a.u.)
 --------------------------------------------------------------

 Alpha MOs
 -- Occupied --
-14.677 -14.659 -10.499 -10.498 -10.492 -10.479 -10.479 -10.478
-10.475 -10.474 -10.473 -10.473 -10.473 -10.473 -10.473 -10.472
-10.472 -10.471 -10.471 -10.470 -10.469 -10.469 -10.469 -10.469
-10.468 -10.468 -10.466 -10.466 -10.465 -10.465 -10.464 -10.464
-10.462 -10.462 -10.461 -10.460 -10.457 -10.457 -10.455 -10.454
-10.452 -10.452 -10.452 -10.451 -10.449 -10.448 -10.448 -10.447
-10.447 -10.446 -10.445 -10.445 -10.444 -10.443 -10.443 -10.443
-10.442 -10.441 -10.437 -10.437 -10.437 -10.436 -10.436 -10.435
-10.434 -10.434 -10.434 -10.432 -10.432 -10.430 -10.430 -10.429
-10.427 -10.424 -10.423 -10.418 -10.417 -10.416  -6.957  -6.949
 -1.087  -1.075  -1.025  -1.024  -0.972  -0.968  -0.967  -0.966
 -0.951  -0.950  -0.947  -0.941  -0.940  -0.931  -0.916  -0.907
 -0.898  -0.885  -0.876  -0.865  -0.864  -0.857  -0.857  -0.854
 -0.853  -0.847  -0.842  -0.840  -0.833  -0.831  -0.828  -0.828
 -0.821  -0.819  -0.814  -0.812  -0.811  -0.799  -0.794  -0.779
 -0.743  -0.738  -0.734  -0.728  -0.723  -0.720  -0.711  -0.708
 -0.707  -0.706  -0.696  -0.693  -0.687  -0.687  -0.686  -0.684
 -0.675  -0.674  -0.672  -0.665  -0.655  -0.653  -0.643  -0.641
 -0.628  -0.623  -0.613  -0.603  -0.600  -0.597  -0.595  -0.593
 -0.592  -0.589  -0.583  -0.582  -0.578  -0.568  -0.564  -0.554
 -0.551  -0.549  -0.549  -0.546  -0.539  -0.534  -0.530  -0.529
 -0.527  -0.521  -0.516  -0.515  -0.515  -0.511  -0.509  -0.505
 -0.503  -0.503  -0.502  -0.501  -0.498  -0.496  -0.496  -0.495
 -0.494  -0.493  -0.489  -0.488  -0.488  -0.486  -0.486  -0.484
 -0.484  -0.479  -0.478  -0.475  -0.475  -0.472  -0.472  -0.466
 -0.464  -0.461  -0.459  -0.452  -0.448  -0.445  -0.445  -0.443
 -0.440  -0.436  -0.435  -0.434  -0.433  -0.431  -0.426  -0.423
 -0.423  -0.421  -0.418  -0.416  -0.413  -0.408  -0.408  -0.406
 -0.405  -0.404  -0.403  -0.403  -0.402  -0.401  -0.401  -0.399
 -0.399  -0.398  -0.395  -0.394  -0.390  -0.389  -0.387  -0.387
 -0.384  -0.381  -0.375  -0.365  -0.362  -0.360  -0.359  -0.358
 -0.342  -0.341  -0.328  -0.323  -0.308  -0.307  -0.304  -0.303
 -0.302  -0.295  -0.294  -0.290  -0.289  -0.286  -0.285  -0.275
 -0.270  -0.269  -0.266  -0.263  -0.232  -0.206

          Ground-State Mulliken Net Atomic Charges

     Atom                 Charge (a.u.)
  ----------------------------------------
      1 C                    -0.149120
      2 C                    -0.400998
      3 H                     0.244161
      4 C                     0.100778
      5 C                     0.074500
      6 C                    -0.392046
      7 H                     0.259166
      8 C                    -0.147408
      9 C                     0.179460
     10 C                    -0.389422
     11 H                     0.256232
     12 C                    -0.069632
     13 C                     0.221267
     14 C                     0.179179
     15 C                    -0.399264
     16 H                     0.248873
     17 C                    -0.231851
     18 H                     0.258985
     19 C                    -0.345166
     20 H                     0.253573
     21 C                    -0.348593
     22 H                     0.253741
     23 C                    -0.230026
     24 H                     0.254835
     25 B                     0.625806
     26 C                    -0.150871
     27 C                    -0.400022
     28 H                     0.258809
     29 C                     0.076631
     30 C                     0.099285
     31 C                    -0.405499
     32 H                     0.244894
     33 C                    -0.150742
     34 C                     0.176488
     35 C                    -0.387782
     36 H                     0.255907
     37 C                    -0.068317
     38 C                     0.223031
     39 C                     0.177853
     40 C                    -0.397715
     41 H                     0.248493
     42 C                    -0.231999
     43 H                     0.259089
     44 C                    -0.345231
     45 H                     0.253690
     46 C                    -0.229883
     47 H                     0.255681
     48 C                    -0.349448
     49 H                     0.254038
     50 B                     0.632256
     51 C                    -0.209524
     52 C                     0.065733
     53 C                    -0.344529
     54 H                     0.241612
     55 C                     0.253031
     56 C                    -0.334919
     57 H                     0.244862
     58 C                     0.046212
     59 N                    -0.667734
     60 C                     0.321265
     61 C                    -0.318033
     62 H                     0.261754
     63 C                    -0.236945
     64 H                     0.246249
     65 C                    -0.270787
     66 H                     0.242353
     67 C                    -0.235777
     68 H                     0.244398
     69 C                    -0.306593
     70 H                     0.255585
     71 C                     0.299880
     72 C                    -0.289334
     73 H                     0.262550
     74 C                    -0.241069
     75 H                     0.248012
     76 C                    -0.263055
     77 H                     0.244543
     78 C                    -0.240591
     79 H                     0.244409
     80 C                    -0.300051
     81 H                     0.257469
     82 C                    -0.545701
     83 H                     0.249327
     84 H                     0.243634
     85 C                    -0.554151
     86 H                     0.254231
     87 H                     0.245190
     88 C                    -0.658580
     89 H                     0.234541
     90 H                     0.230992
     91 H                     0.224054
     92 C                    -0.660673
     93 H                     0.240595
     94 H                     0.223148
     95 H                     0.231686
     96 C                    -0.254716
     97 C                     0.067414
     98 C                    -0.382046
     99 H                     0.258111
    100 C                     0.330656
    101 N                    -0.657797
    102 C                    -0.378640
    103 H                     0.256499
    104 C                     0.087762
    105 C                     0.270082
    106 C                    -0.276487
    107 H                     0.263201
    108 C                    -0.240773
    109 H                     0.243463
    110 C                    -0.258121
    111 H                     0.240698
    112 C                    -0.239275
    113 H                     0.245395
    114 C                    -0.284767
    115 H                     0.263435
    116 C                     0.262975
    117 C                    -0.279594
    118 H                     0.263745
    119 C                    -0.240481
    120 H                     0.245560
    121 C                    -0.257163
    122 H                     0.240957
    123 C                    -0.240807
    124 H                     0.243700
    125 C                    -0.273967
    126 H                     0.262378
    127 C                    -0.542374
    128 H                     0.237671
    129 H                     0.244777
    130 C                    -0.553604
    131 H                     0.247464
    132 H                     0.247071
    133 C                    -0.655561
    134 H                     0.227393
    135 H                     0.223882
    136 H                     0.229586
    137 C                    -0.655552
    138 H                     0.230227
    139 H                     0.221808
    140 H                     0.230882
  ----------------------------------------
  Sum of atomic charges =    -0.000000

                    Cartesian Multipole Moments
 -----------------------------------------------------------------
    Charge (ESU x 10^10)
                -0.0000
    Dipole Moment (Debye)
         X      -3.2381      Y       0.5193      Z      -1.5352
       Tot       3.6210
    Quadrupole Moments (Debye-Ang)
        XX    -402.9161     XY      -5.2092     YY    -460.2636
        XZ      -6.3584     YZ       1.0142     ZZ    -376.6924

 Total job time:  40878.16s(wall), 113091.52s(cpu)
        *  Thank you very much for using Q-Chem.  Have a nice day.  *
