 Q-Chem 5.1, Q-Chem, Inc., Pleasanton, CA (2018)
 Q-Chem 5.1.1 for Intel X86 EM64T Linux

User input:
--------------------------------------------------------------
$solvent
dielectric      1.0001
dielectric_infi 1.00009
$end

$rem
threads 8
jobtype	sp
method PBEh-3c
basis def2-mSVP
mem_static	1024
mem_total	14000
sym_ignore	true
cis_n_roots             2
cis_singlets            true
cis_triplets		false
rpa                     false
calc_soc 		true
cis_moments             true
cis_relaxed_density	true
solvent_method		pcm
$end

$pcm
StateSpecific   1
ChargeSeparation Excited
$end

$molecule
read moms1opt_vac.mol
$end

--------------------------------------------------------------

   15   -3084.7721198903      7.14e-09  Convergence criterion met
 Total energy in the final basis set =    -3084.7721198903

         TDDFT/TDA Excitation Energies
 ---------------------------------------------------

 Excited state   1: excitation energy (eV) =    2.1078
 Total energy for state  1:                 -3084.69466110 au
    Multiplicity: Singlet
    Trans. Mom.:  0.3542 X  -0.0635 Y   0.3157 Z
    Strength   :     0.0118344014
    D(270) --> V(  1) amplitude =  0.9728

 Excited state   2: excitation energy (eV) =    2.5548
 Total energy for state  2:                 -3084.67823303 au
    Multiplicity: Singlet
    Trans. Mom.:  0.5275 X   0.0450 Y   0.2515 Z
    Strength   :     0.0215017363
    D(269) --> V(  1) amplitude =  0.9748

 ---------------------------------------------------

                    Orbital Energies (a.u.)
 --------------------------------------------------------------

 Alpha MOs
 -- Occupied --
-14.669 -14.666 -10.491 -10.490 -10.488 -10.487 -10.483 -10.480
-10.466 -10.465 -10.465 -10.465 -10.465 -10.464 -10.464 -10.463
-10.463 -10.463 -10.463 -10.462 -10.462 -10.462 -10.462 -10.461
-10.460 -10.460 -10.460 -10.460 -10.460 -10.460 -10.455 -10.453
-10.453 -10.451 -10.451 -10.450 -10.450 -10.450 -10.450 -10.450
-10.448 -10.448 -10.448 -10.447 -10.447 -10.447 -10.447 -10.446
-10.446 -10.446 -10.444 -10.443 -10.442 -10.442 -10.442 -10.442
-10.441 -10.437 -10.437 -10.436 -10.436 -10.435 -10.435 -10.434
-10.434 -10.434 -10.432 -10.432 -10.431 -10.428 -10.427 -10.425
-10.424 -10.420 -10.418 -10.418 -10.415 -10.415  -6.946  -6.940
 -1.084  -1.076  -1.016  -1.015  -0.963  -0.963  -0.959  -0.958
 -0.956  -0.956  -0.938  -0.936  -0.934  -0.933  -0.908  -0.899
 -0.888  -0.886  -0.867  -0.863  -0.855  -0.854  -0.852  -0.848
 -0.847  -0.847  -0.843  -0.842  -0.838  -0.832  -0.824  -0.820
 -0.819  -0.813  -0.812  -0.804  -0.801  -0.796  -0.789  -0.783
 -0.736  -0.731  -0.727  -0.721  -0.715  -0.713  -0.711  -0.710
 -0.698  -0.698  -0.697  -0.695  -0.690  -0.686  -0.681  -0.680
 -0.676  -0.674  -0.666  -0.665  -0.648  -0.645  -0.638  -0.634
 -0.631  -0.627  -0.604  -0.603  -0.597  -0.594  -0.593  -0.590
 -0.585  -0.583  -0.583  -0.576  -0.576  -0.562  -0.560  -0.554
 -0.553  -0.544  -0.543  -0.540  -0.540  -0.536  -0.528  -0.526
 -0.525  -0.518  -0.517  -0.514  -0.508  -0.507  -0.504  -0.503
 -0.501  -0.499  -0.497  -0.496  -0.494  -0.494  -0.493  -0.489
 -0.489  -0.488  -0.487  -0.486  -0.484  -0.483  -0.483  -0.482
 -0.480  -0.479  -0.477  -0.476  -0.475  -0.468  -0.467  -0.462
 -0.461  -0.455  -0.454  -0.450  -0.442  -0.441  -0.435  -0.434
 -0.433  -0.433  -0.429  -0.428  -0.427  -0.425  -0.424  -0.423
 -0.423  -0.422  -0.419  -0.416  -0.415  -0.408  -0.407  -0.405
 -0.404  -0.400  -0.399  -0.399  -0.398  -0.396  -0.396  -0.395
 -0.394  -0.393  -0.392  -0.391  -0.390  -0.386  -0.385  -0.382
 -0.378  -0.374  -0.367  -0.359  -0.356  -0.354  -0.351  -0.348
 -0.343  -0.334  -0.318  -0.313  -0.308  -0.300  -0.297  -0.297
 -0.296  -0.296  -0.295  -0.290  -0.284  -0.281  -0.279  -0.274
 -0.272  -0.261  -0.255  -0.254  -0.220  -0.212

          Ground-State Mulliken Net Atomic Charges

     Atom                 Charge (a.u.)
  ----------------------------------------
      1 C                    -0.148564
      2 C                    -0.393831
      3 H                     0.232491
      4 C                     0.119596
      5 C                     0.092310
      6 C                    -0.383230
      7 H                     0.235855
      8 C                    -0.143797
      9 C                     0.199421
     10 C                    -0.378625
     11 H                     0.219698
     12 C                    -0.066674
     13 C                     0.251688
     14 C                     0.198032
     15 C                    -0.387899
     16 H                     0.220736
     17 C                    -0.204963
     18 H                     0.226562
     19 C                    -0.331972
     20 H                     0.220543
     21 C                    -0.335537
     22 H                     0.220970
     23 C                    -0.202006
     24 H                     0.224871
     25 B                     0.625909
     26 C                    -0.146644
     27 C                    -0.393892
     28 H                     0.234025
     29 C                     0.094700
     30 C                     0.118230
     31 C                    -0.399670
     32 H                     0.232203
     33 C                    -0.149933
     34 C                     0.196002
     35 C                    -0.376470
     36 H                     0.219305
     37 C                    -0.064817
     38 C                     0.253471
     39 C                     0.197134
     40 C                    -0.385342
     41 H                     0.218960
     42 C                    -0.204915
     43 H                     0.226865
     44 C                    -0.332097
     45 H                     0.220732
     46 C                    -0.202384
     47 H                     0.226418
     48 C                    -0.336303
     49 H                     0.221353
     50 B                     0.646212
     51 C                    -0.212532
     52 C                     0.077290
     53 C                    -0.327310
     54 H                     0.222914
     55 C                     0.246197
     56 C                    -0.320796
     57 H                     0.229764
     58 C                     0.060132
     59 N                    -0.669724
     60 C                     0.325817
     61 C                    -0.305043
     62 H                     0.248900
     63 C                    -0.211006
     64 H                     0.217750
     65 C                    -0.243736
     66 H                     0.214304
     67 C                    -0.209403
     68 H                     0.215153
     69 C                    -0.287126
     70 H                     0.241139
     71 C                     0.305287
     72 C                    -0.275389
     73 H                     0.247303
     74 C                    -0.216437
     75 H                     0.219778
     76 C                    -0.236695
     77 H                     0.216212
     78 C                    -0.214827
     79 H                     0.212993
     80 C                    -0.280777
     81 H                     0.243991
     82 C                    -0.544674
     83 H                     0.252073
     84 H                     0.231425
     85 C                    -0.555089
     86 H                     0.257699
     87 H                     0.234083
     88 C                    -0.646763
     89 H                     0.241071
     90 H                     0.217156
     91 H                     0.220906
     92 C                    -0.647642
     93 H                     0.248834
     94 H                     0.216223
     95 H                     0.218485
     96 C                    -0.252400
     97 C                     0.082573
     98 C                    -0.382865
     99 H                     0.240685
    100 C                     0.335664
    101 N                    -0.662305
    102 C                    -0.385426
    103 H                     0.238131
    104 C                     0.103438
    105 C                     0.270040
    106 C                    -0.265960
    107 H                     0.242756
    108 C                    -0.217157
    109 H                     0.222002
    110 C                    -0.232770
    111 H                     0.219014
    112 C                    -0.218938
    113 H                     0.221550
    114 C                    -0.261892
    115 H                     0.246960
    116 C                     0.255762
    117 C                    -0.259108
    118 H                     0.242709
    119 C                    -0.218445
    120 H                     0.222409
    121 C                    -0.231613
    122 H                     0.219576
    123 C                    -0.219599
    124 H                     0.223127
    125 C                    -0.255717
    126 H                     0.245457
    127 C                    -0.540451
    128 H                     0.246704
    129 H                     0.227892
    130 C                    -0.553787
    131 H                     0.257664
    132 H                     0.231518
    133 C                    -0.645362
    134 H                     0.240087
    135 H                     0.218648
    136 H                     0.215377
    137 C                    -0.644861
    138 H                     0.245177
    139 H                     0.215730
    140 H                     0.215370
  ----------------------------------------
  Sum of atomic charges =    -0.000000

                    Cartesian Multipole Moments
 -----------------------------------------------------------------
    Charge (ESU x 10^10)
                -0.0000
    Dipole Moment (Debye)
         X      -1.9963      Y       0.2391      Z      -0.9643
       Tot       2.2298
    Quadrupole Moments (Debye-Ang)
        XX    -420.8107     XY      -3.7446     YY    -462.8357
        XZ      -9.4199     YZ       0.9257     ZZ    -401.0527

 Total job time:  19351.65s(wall), 52355.97s(cpu)
        *  Thank you very much for using Q-Chem.  Have a nice day.  *
 Q-Chem 5.1, Q-Chem, Inc., Pleasanton, CA (2018)
 Q-Chem 5.1.1 for Intel X86 EM64T Linux

User input:
--------------------------------------------------------------
$rem
threads 8
jobtype sp
method PBEh-3c
basis def2-mSVP
mem_static      1024
mem_total       14000
sym_ignore      true
cis_n_roots             6
cis_singlets            true
cis_triplets            true
rpa                     false
calc_soc                true
cis_moments             true
cis_relaxed_density     true
solvent_method          pcm
$end

$molecule
read
$end

$pcm
statespecific           Marcus
$end

$solvent
dielectric      1.0001
dielectric_infi 1.00009
$end

--------------------------------------------------------------

             Standard Nuclear Orientation (Angstroms)
    I     Atom           X                Y                Z
 ----------------------------------------------------------------
    1      C       0.0000000000     0.0000000000     0.0000000000
    2      C       0.0000000000     0.0000000000     1.4112320000
    3      H       0.9477895104     0.0000000000     1.9387729991
    4      C      -1.1774962274     0.0130732905     2.1195628747
    5      C      -2.4161600044     0.0384876108     1.4162951373
    6      C      -2.4428228474     0.0531096213     0.0489872455
    7      H      -3.4024320640     0.0872335351    -0.4596089179
    8      C      -1.2446789731     0.0306876464    -0.6962133177
    9      C      -3.4999127154     0.0678702516     2.3916947277
   10      C      -4.8702106345     0.0998700051     2.3217689753
   11      H      -5.3927889040     0.0986574225     1.3725463507
   12      C      -2.8879943505     0.0642064810     3.6591515255
   13      C      -3.5930710417     0.0950983428     4.8597036064
   14      C      -1.4816247268     0.0288884874     3.5511576956
   15      C      -0.7515200570     0.0213101313     4.7127755590
   16      H       0.3309263831    -0.0092803633     4.7047966793
   17      C      -5.6101934617     0.1310094044     3.5249694154
   18      H      -6.6915036808     0.1549142498     3.4696933385
   19      C      -5.0052737891     0.1302383928     4.7603723465
   20      H      -5.6110870467     0.1550652390     5.6581217439
   21      C      -2.8114034856     0.0884471962     6.0388731708
   22      H      -3.2912146065     0.1109561968     7.0097385281
   23      C      -1.4394369814     0.0518558612     5.9487071794
   24      H      -0.8566126247     0.0451395485     6.8609193456
   25      B      -1.2571587159     0.0934109613    -2.2218024540
   26      C       0.0442961672     0.0393666342    -3.0164014109
   27      C       0.0454526148     0.0801232312    -4.4265330722
   28      H      -0.8965265152     0.1351695451    -4.9662784740
   29      C       1.2228971083     0.0552950963    -5.1254392204
   30      C       2.4730318844    -0.0031116348    -4.4428003568
   31      C       2.4928485556    -0.0287295693    -3.0675856913
   32      H       3.4384443356    -0.0566376875    -2.5353429696
   33      C       1.2935900427    -0.0074095302    -2.3251562523
   34      C       1.4824640059     0.0878383611    -6.5598092712
   35      C       0.6996661528     0.1446946992    -7.6848711682
   36      H      -0.3817605894     0.1750762911    -7.6264070023
   37      C       2.8813191123     0.0494547579    -6.7084149670
   38      C       3.5301246465     0.0672008467    -7.9389112205
   39      C       3.5278940940    -0.0065843832    -5.4556671318
   40      C       4.8981874579    -0.0464760963    -5.4438305926
   41      H       5.4585222637    -0.0894927724    -4.5185470701
   42      C       1.3323002415     0.1626720648    -8.9476174115
   43      H       0.7159546481     0.2071531591    -9.8368508735
   44      C       2.7007263160     0.1259980541    -9.0852310488
   45      H       3.1433183164     0.1420678258   -10.0737730657
   46      C       5.5877407132    -0.0300050701    -6.6791318250
   47      H       6.6695857456    -0.0616348252    -6.6632384237
   48      C       4.9437373962     0.0246551307    -7.8931682203
   49      H       5.5180138635     0.0353037367    -8.8113536349
   50      B       1.3225539792     0.0203412909    -0.7878014705
   51      C       2.6708418505     0.1659720280     0.0169585265
   52      C       3.2318623548    -0.9146978877     0.7132356884
   53      C       4.3396865778    -0.7219909804     1.5294428852
   54      H       4.7621318699    -1.5550007257     2.0802346698
   55      C       4.8968040574     0.5392468516     1.6757043518
   56      C       4.3684171420     1.6056992721     0.9654525974
   57      H       4.8088485461     2.5906197054     1.0788550651
   58      C       3.2667494262     1.4309778257     0.1376378649
   59      N       5.9530385785     0.7432580434     2.5983775285
   60      C       7.1142781118     1.3928285004     2.1718018881
   61      C       7.8087064439     2.2783298375     2.9987165920
   62      H       7.4520093625     2.4772478022     4.0005119456
   63      C       8.9464377506     2.9204888860     2.5389016618
   64      H       9.4654183890     3.6049916950     3.1978685523
   65      C       9.4077986301     2.7154256299     1.2479250205
   66      H      10.2913321862     3.2271949689     0.8910432661
   67      C       8.7121928055     1.8457420537     0.4199171733
   68      H       9.0540754460     1.6706072580    -0.5921620920
   69      C       7.5850231119     1.1840185313     0.8728384154
   70      H       7.0572220621     0.5055973514     0.2153435809
   71      C       5.6603894723     0.5475280071     3.9565684378
   72      C       6.6230076804     0.0401417472     4.8292935149
   73      H       7.6099001140    -0.1996257591     4.4552064329
   74      C       6.3186109345    -0.1618556336     6.1646762389
   75      H       7.0780668401    -0.5580970063     6.8264165093
   76      C       5.0496216160     0.1169575818     6.6523309508
   77      H       4.8136217154    -0.0515804191     7.6944960115
   78      C       4.0870509604     0.6090645099     5.7838917952
   79      H       3.0926356988     0.8360691013     6.1475259521
   80      C       4.3856637618     0.8303867358     4.4499403300
   81      H       3.6270585067     1.2228064134     3.7847384853
   82      C       2.6637844190    -2.3023799681     0.5612293553
   83      H       1.5717774903    -2.2616198761     0.5538919267
   84      H       2.9395935742    -2.9070491660     1.4289381171
   85      C       2.6811800661     2.6474641003    -0.5385215035
   86      H       2.2650108996     2.3786323466    -1.5111776406
   87      H       3.4793202558     3.3672306447    -0.7387920571
   88      C       3.1454660463    -2.9929984846    -0.7125894460
   89      H       2.8318829453    -2.4450868185    -1.6011948060
   90      H       4.2334958344    -3.0666549569    -0.7325082086
   91      H       2.7387655547    -4.0024891282    -0.7873154706
   92      C       1.5968043886     3.3224710477     0.3006423071
   93      H       0.7664183076     2.6437161325     0.4939529129
   94      H       1.9891972610     3.6489658000     1.2647314216
   95      H       1.1983969853     4.2001114902    -0.2118843602
   96      C      -2.6476245645     0.3779548637    -2.9217546535
   97      C      -3.0072547559     1.7264796809    -3.2172498034
   98      C      -4.2601500938     2.0230227571    -3.6840772846
   99      H      -4.5105374756     3.0482972002    -3.9258210579
  100      C      -5.2193054355     1.0069155235    -3.8842132386
  101      N      -6.4792682998     1.3325520100    -4.2886569651
  102      C      -4.8584667639    -0.3382209498    -3.6418928491
  103      H      -5.5967120690    -1.1205179469    -3.7659304362
  104      C      -3.6068935693    -0.6490621107    -3.1755717492
  105      C      -7.3072877607     0.4141846234    -4.9758620731
  106      C      -8.6337558485     0.2625995378    -4.5832503089
  107      H      -9.0165464848     0.8210557317    -3.7389522209
  108      C      -9.4522359220    -0.6130764444    -5.2735115324
  109      H     -10.4805325782    -0.7390310922    -4.9631832644
  110      C      -8.9564382270    -1.3308731650    -6.3535804011
  111      H      -9.6005803043    -2.0131471191    -6.8913833156
  112      C      -7.6360818342    -1.1675540630    -6.7468972486
  113      H      -7.2504241922    -1.7137392024    -7.5968293564
  114      C      -6.8073787521    -0.2924463978    -6.0655502574
  115      H      -5.7840013495    -0.1446802304    -6.3854716594
  116      C      -7.0132026400     2.6201751080    -4.0342903987
  117      C      -7.6195456478     3.3269792010    -5.0674832329
  118      H      -7.6690498322     2.9010584655    -6.0610584186
  119      C      -8.1419163194     4.5837203130    -4.8176543621
  120      H      -8.6026594103     5.1395725568    -5.6228707052
  121      C      -8.0666439269     5.1333025385    -3.5450833004
  122      H      -8.4752312198     6.1165561651    -3.3552962297
  123      C      -7.4704141849     4.4191547280    -2.5158380977
  124      H      -7.4195153432     4.8383651442    -1.5202925831
  125      C      -6.9458959827     3.1597785304    -2.7528727201
  126      H      -6.4928438246     2.5951697329    -1.9480397729
  127      C      -3.2559715282    -2.0857084439    -2.9206648773
  128      H      -2.6457981563    -2.1619763256    -2.0190182217
  129      H      -4.1688364208    -2.6564405358    -2.7333797288
  130      C      -2.0552138677     2.8626610590    -2.9675914717
  131      H      -1.0255777526     2.5127944793    -3.0289658237
  132      H      -2.1791034308     3.6148506304    -3.7513758776
  133      C      -2.5037010306    -2.6949994050    -4.1024129161
  134      H      -1.5621704139    -2.1773373983    -4.2813615110
  135      H      -2.2710633558    -3.7411090109    -3.9062071130
  136      H      -3.0989488035    -2.6479120884    -5.0155648365
  137      C      -2.3037041699     3.5024665569    -1.6014110532
  138      H      -2.1926336900     2.7742335121    -0.7989220847
  139      H      -1.5896434569     4.3056298346    -1.4209981865
  140      H      -3.3081349110     3.9256262354    -1.5392000165
 ----------------------------------------------------------------
