 Q-Chem 5.1, Q-Chem, Inc., Pleasanton, CA (2018)
 Q-Chem 5.1.1 for Intel X86 EM64T Linux

User input:
--------------------------------------------------------------
$solvent
dielectric      2.38
dielectric_infi 2.25
$end

$rem
threads 8
jobtype	sp
method PBEh-3c
basis def2-mSVP
mem_static	1024
mem_total	14000
sym_ignore	true
cis_n_roots             2
cis_singlets            true
cis_triplets		false
rpa                     false
calc_soc 		true
cis_moments             true
cis_relaxed_density	true
solvent_method		pcm
$end

$pcm
StateSpecific   1
ChargeSeparation Excited
$end

$molecule
read moms1opt_tol.mol
$end

--------------------------------------------------------------

   15   -3084.7961556005      6.02e-09  Convergence criterion met
 Total energy in the final basis set =    -3084.7961556005
 Total job time:  19793.14s(wall), 55722.31s(cpu)
        *  Thank you very much for using Q-Chem.  Have a nice day.  *
 Q-Chem 5.1, Q-Chem, Inc., Pleasanton, CA (2018)
 Q-Chem 5.1.1 for Intel X86 EM64T Linux

User input:
--------------------------------------------------------------
$rem
threads 8
jobtype sp
method PBEh-3c
basis def2-mSVP
mem_static      1024
mem_total       14000
sym_ignore      true
cis_n_roots             6
cis_singlets            true
cis_triplets            true
rpa                     false
calc_soc                true
cis_moments             true
cis_relaxed_density     true
solvent_method          pcm
$end

$molecule
read
$end

$pcm
statespecific           Marcus
$end

$solvent
dielectric      2.38
dielectric_infi 2.25
$end

--------------------------------------------------------------

             Standard Nuclear Orientation (Angstroms)
    I     Atom           X                Y                Z
 ----------------------------------------------------------------
    1      C       0.0000000000     0.0000000000     0.0000000000
    2      C       0.0000000000     0.0000000000     1.4123830000
    3      H       0.9466260089     0.0000000000     1.9423161068
    4      C      -1.1778337913     0.0119499926     2.1200169436
    5      C      -2.4174189035     0.0365327386     1.4164970351
    6      C      -2.4432579385     0.0550235805     0.0479568335
    7      H      -3.4008891391     0.0909044382    -0.4635207492
    8      C      -1.2455590234     0.0348467655    -0.6960781811
    9      C      -3.5008973071     0.0619919381     2.3919857453
   10      C      -4.8720846974     0.0919748667     2.3218944646
   11      H      -5.3952000943     0.0938178333     1.3729984484
   12      C      -2.8885827315     0.0566518863     3.6600581503
   13      C      -3.5940172355     0.0837603377     4.8611108763
   14      C      -1.4817892200     0.0254206829     3.5525116239
   15      C      -0.7510015896     0.0194651527     4.7145257868
   16      H       0.3317084803    -0.0063577466     4.7068737002
   17      C      -5.6119294747     0.1186901119     3.5260644975
   18      H      -6.6932747858     0.1413527786     3.4703460631
   19      C      -5.0070701417     0.1158912502     4.7622978824
   20      H      -5.6128013513     0.1376820031     5.6602695359
   21      C      -2.8123976354     0.0778205995     6.0409614336
   22      H      -3.2927166974     0.0977470528     7.0117681897
   23      C      -1.4394846309     0.0463437335     5.9508970840
   24      H      -0.8565524509     0.0410417218     6.8631885190
   25      B      -1.2663196942     0.0987062675    -2.2229853667
   26      C       0.0376089576     0.0332834889    -3.0158299910
   27      C       0.0359764175     0.0688836096    -4.4255045924
   28      H      -0.9073141239     0.1273326287    -4.9617772557
   29      C       1.2122125915     0.0350142565    -5.1278292564
   30      C       2.4645881962    -0.0254616897    -4.4472268267
   31      C       2.4875881944    -0.0449817604    -3.0719026300
   32      H       3.4358338888    -0.0748086722    -2.5441651003
   33      C       1.2892328304    -0.0161689794    -2.3261558968
   34      C       1.4684581036     0.0591702094    -6.5625465480
   35      C       0.6825557234     0.1132174442    -7.6868276287
   36      H      -0.3986490856     0.1482810791    -7.6262503270
   37      C       2.8675336910     0.0141792849    -6.7143033720
   38      C       3.5137774631     0.0231010627    -7.9469866137
   39      C       3.5174236490    -0.0384084774    -5.4626700448
   40      C       4.8885288653    -0.0839243226    -5.4535207508
   41      H       5.4513236757    -0.1249482344    -4.5294462898
   42      C       1.3131233020     0.1221692671    -8.9513368653
   43      H       0.6945907668     0.1644474926    -9.8392533004
   44      C       2.6818459565     0.0794250915    -9.0925723648
   45      H       3.1223619545     0.0885957160   -10.0822288429
   46      C       5.5750889194    -0.0760996687    -6.6910635947
   47      H       6.6569557598    -0.1120922432    -6.6776095370
   48      C       4.9278897765    -0.0248095273    -7.9046195447
   49      H       5.4998628167    -0.0209657731    -8.8244353705
   50      B       1.3211508795     0.0170978428    -0.7896353829
   51      C       2.6721071541     0.1694422211     0.0120669299
   52      C       3.2379401680    -0.9059790437     0.7132120484
   53      C       4.3478271557    -0.7070004225     1.5262244819
   54      H       4.7728088344    -1.5374647127     2.0793920580
   55      C       4.9025126616     0.5564000487     1.6649063795
   56      C       4.3704186902     1.6179553140     0.9494879548
   57      H       4.8071920571     2.6053663098     1.0564607157
   58      C       3.2673471635     1.4362010950     0.1240229724
   59      N       5.9599106716     0.7670265286     2.5854647594
   60      C       7.1159007187     1.4255143581     2.1577805848
   61      C       7.7996433422     2.3225405748     2.9819421229
   62      H       7.4391392401     2.5245065363     3.9818895235
   63      C       8.9332535461     2.9732194470     2.5219647893
   64      H       9.4435468011     3.6665179303     3.1787211215
   65      C       9.4011207617     2.7645197508     1.2331065386
   66      H      10.2811186870     3.2825236262     0.8759687440
   67      C       8.7162191428     1.8829106134     0.4075382982
   68      H       9.0630951241     1.7045120773    -0.6024097353
   69      C       7.5932093344     1.2131131536     0.8612612993
   70      H       7.0757686579     0.5252135129     0.2050402986
   71      C       5.6693292379     0.5763341404     3.9457188877
   72      C       6.6343585494     0.0710311798     4.8174864926
   73      H       7.6208471154    -0.1708988220     4.4431420610
   74      C       6.3332481682    -0.1273906496     6.1547867246
   75      H       7.0944612643    -0.5219751933     6.8156839583
   76      C       5.0647070396     0.1529505975     6.6447527284
   77      H       4.8310190411    -0.0130927685     7.6880068018
   78      C       4.0995373579     0.6429416504     5.7770150710
   79      H       3.1054695399     0.8700440949     6.1417181897
   80      C       4.3956557534     0.8611322459     4.4411664318
   81      H       3.6340265624     1.2520007606     3.7782714862
   82      C       2.6747848422    -2.2966551724     0.5694850668
   83      H       1.5828719237    -2.2589163286     0.5544745283
   84      H       2.9479266074    -2.8940046651     1.4430574572
   85      C       2.6829184910     2.6480372374    -0.5620110038
   86      H       2.2796057955     2.3740265833    -1.5385638581
   87      H       3.4798747361     3.3713942578    -0.7538214530
   88      C       3.1658142364    -2.9953254701    -0.6965695574
   89      H       2.8591468932    -2.4515080127    -1.5902815065
   90      H       4.2540868313    -3.0700753979    -0.7078437946
   91      H       2.7583347819    -4.0047167432    -0.7685178858
   92      C       1.5840308004     3.3216758320     0.2594963736
   93      H       0.7496768171     2.6431729060     0.4364622045
   94      H       1.9600055094     3.6474770332     1.2305390060
   95      H       1.1945941567     4.1990273753    -0.2600458705
   96      C      -2.6555122582     0.3812006373    -2.9333607718
   97      C      -3.0174948411     1.7271766745    -3.2115376599
   98      C      -4.2519674744     2.0213611964    -3.7337303284
   99      H      -4.4986815561     3.0475634495    -3.9760881869
  100      C      -5.1871679997     0.9993498033    -3.9955939037
  101      N      -6.4274160931     1.3177177531    -4.4684888979
  102      C      -4.8285563726    -0.3428949006    -3.7468531133
  103      H      -5.5537101540    -1.1307874433    -3.9088217667
  104      C      -3.5925296350    -0.6473930917    -3.2296737940
  105      C      -7.1920971452     0.4068954202    -5.2303720139
  106      C      -6.6022921853    -0.2845646825    -6.2859987525
  107      H      -5.5593437998    -0.1246612475    -6.5272753023
  108      C      -7.3711208377    -1.1537113996    -7.0406942792
  109      H      -6.9182743992    -1.6854504638    -7.8663261748
  110      C      -8.7176470350    -1.3289281207    -6.7517663828
  111      H      -9.3141028519    -2.0077194065    -7.3462771747
  112      C      -9.3013127162    -0.6276636374    -5.7040106814
  113      H     -10.3493717573    -0.7646216151    -5.4749993417
  114      C      -8.5455914467     0.2450254973    -4.9428208320
  115      H      -8.9969178878     0.7867486348    -4.1217788859
  116      C      -6.9937869556     2.5887026432    -4.2124812475
  117      C      -7.5643831092     3.3064837366    -5.2600115798
  118      H      -7.5579201388     2.9036981640    -6.2644336533
  119      C      -8.1161631832     4.5500272732    -5.0087267510
  120      H      -8.5468455849     5.1166720762    -5.8230568297
  121      C      -8.1088091675     5.0728535309    -3.7217038180
  122      H      -8.5422474183     6.0453711513    -3.5309770244
  123      C      -7.5494399688     4.3463653822    -2.6793636329
  124      H      -7.5541072402     4.7445458749    -1.6739156321
  125      C      -6.9921771941     3.1014563906    -2.9172007812
  126      H      -6.5725234432     2.5249638117    -2.1027822696
  127      C      -3.2449723771    -2.0877692829    -2.9827243741
  128      H      -2.6068752480    -2.1715103846    -2.1013612215
  129      H      -4.1560378005    -2.6502819196    -2.7650757960
  130      C      -2.0937964819     2.8722504751    -2.8954315149
  131      H      -1.0601059704     2.5289632881    -2.8653808849
  132      H      -2.1525894811     3.6149148520    -3.6956422719
  133      C      -2.5392218859    -2.7056751299    -4.1879431506
  134      H      -1.6040652409    -2.1899437611    -4.4038350967
  135      H      -2.3024787632    -3.7521857370    -3.9978315673
  136      H      -3.1677570501    -2.6583092629    -5.0786523639
  137      C      -2.4557459993     3.5288648493    -1.5638620457
  138      H      -2.3992482981     2.8133038889    -0.7438614541
  139      H      -1.7677834267     4.3442190904    -1.3407027996
  140      H      -3.4667681566     3.9397528970    -1.5866514944
 ----------------------------------------------------------------

   15   -3084.7956179179      6.07e-09  Convergence criterion met
 Total energy in the final basis set =    -3084.7956179179

         TDDFT/TDA Excitation Energies
 ---------------------------------------------------

 Excited state   1: excitation energy (eV) =    2.0827
 Total energy for state  1:                 -3084.71908167 au
    Multiplicity: Triplet
    Trans. Mom.:  0.0000 X   0.0000 Y   0.0000 Z
    Strength   :     0.0000000000
    D(270) --> V(  1) amplitude =  0.9548

 Excited state   2: excitation energy (eV) =    2.1146
 Total energy for state  2:                 -3084.71790911 au
    Multiplicity: Singlet
    Trans. Mom.: -0.2584 X   0.0523 Y  -0.3061 Z
    Strength   :     0.0084550183
    D(270) --> V(  1) amplitude =  0.9733

 Excited state   3: excitation energy (eV) =    2.2236
 Total energy for state  3:                 -3084.71390131 au
    Multiplicity: Triplet
    Trans. Mom.:  0.0000 X   0.0000 Y   0.0000 Z
    Strength   :     0.0000000000
    D(267) --> V(  1) amplitude =  0.8841
    D(268) --> V(  1) amplitude =  0.2126

 Excited state   4: excitation energy (eV) =    2.4279
 Total energy for state  4:                 -3084.70639523 au
    Multiplicity: Triplet
    Trans. Mom.:  0.0000 X   0.0000 Y   0.0000 Z
    Strength   :     0.0000000000
    D(266) --> V(  2) amplitude =  0.4659
    D(268) --> V(  1) amplitude =  0.7775

 Excited state   5: excitation energy (eV) =    2.4784
 Total energy for state  5:                 -3084.70453922 au
    Multiplicity: Triplet
    Trans. Mom.:  0.0000 X   0.0000 Y   0.0000 Z
    Strength   :     0.0000000000
    D(266) --> V(  1) amplitude = -0.7036
    D(266) --> V(  4) amplitude =  0.2148
    D(268) --> V(  2) amplitude = -0.5028
    D(269) --> V(  1) amplitude = -0.3287

 Excited state   6: excitation energy (eV) =    2.5646
 Total energy for state  6:                 -3084.70136947 au
    Multiplicity: Triplet
    Trans. Mom.:  0.0000 X   0.0000 Y   0.0000 Z
    Strength   :     0.0000000000
    D(266) --> V(  1) amplitude = -0.2377
    D(269) --> V(  1) amplitude =  0.8759

 Excited state   7: excitation energy (eV) =    2.5842
 Total energy for state  7:                 -3084.70065076 au
    Multiplicity: Singlet
    Trans. Mom.:  0.5975 X   0.0535 Y   0.2456 Z
    Strength   :     0.0266026004
    D(269) --> V(  1) amplitude =  0.9723

 Excited state   8: excitation energy (eV) =    2.7382
 Total energy for state  8:                 -3084.69499117 au
    Multiplicity: Triplet
    Trans. Mom.:  0.0000 X   0.0000 Y   0.0000 Z
    Strength   :     0.0000000000
    D(261) --> V(  1) amplitude =  0.3884
    D(262) --> V(  1) amplitude =  0.3118
    D(263) --> V(  1) amplitude =  0.4748
    D(267) --> V(  2) amplitude =  0.5357

 Excited state   9: excitation energy (eV) =    2.8815
 Total energy for state  9:                 -3084.68972591 au
    Multiplicity: Singlet
    Trans. Mom.: -0.0789 X  -0.0137 Y   0.1828 Z
    Strength   :     0.0028121844
    D(267) --> V(  1) amplitude =  0.9452

 Excited state  10: excitation energy (eV) =    3.1106
 Total energy for state 10:                 -3084.68130364 au
    Multiplicity: Singlet
    Trans. Mom.: -1.9701 X   0.0201 Y   3.5518 Z
    Strength   :     1.2572602875
    D(268) --> V(  1) amplitude =  0.9335

 Excited state  11: excitation energy (eV) =    3.3768
 Total energy for state 11:                 -3084.67152212 au
    Multiplicity: Singlet
    Trans. Mom.:  0.1916 X  -0.0206 Y   0.0951 Z
    Strength   :     0.0038218986
    D(270) --> V(  2) amplitude =  0.9706

 Excited state  12: excitation energy (eV) =    3.4082
 Total energy for state 12:                 -3084.67036832 au
    Multiplicity: Singlet
    Trans. Mom.:  0.0819 X  -0.1116 Y  -0.2260 Z
    Strength   :     0.0058658760
    D(266) --> V(  1) amplitude = -0.9136

 ---------------------------------------------------

                    Orbital Energies (a.u.)
 --------------------------------------------------------------

 Alpha MOs
 -- Occupied --
-14.670 -14.670 -10.492 -10.492 -10.491 -10.491 -10.486 -10.484
-10.468 -10.467 -10.467 -10.467 -10.466 -10.466 -10.466 -10.466
-10.465 -10.465 -10.465 -10.464 -10.463 -10.463 -10.463 -10.463
-10.463 -10.462 -10.460 -10.460 -10.460 -10.460 -10.458 -10.456
-10.456 -10.454 -10.454 -10.454 -10.450 -10.450 -10.449 -10.449
-10.449 -10.449 -10.449 -10.449 -10.448 -10.448 -10.447 -10.447
-10.447 -10.447 -10.446 -10.446 -10.446 -10.445 -10.445 -10.445
-10.443 -10.442 -10.442 -10.439 -10.439 -10.439 -10.439 -10.438
-10.437 -10.436 -10.435 -10.434 -10.432 -10.431 -10.430 -10.428
-10.428 -10.421 -10.420 -10.419 -10.419 -10.418  -6.950  -6.945
 -1.086  -1.081  -1.018  -1.017  -0.965  -0.963  -0.962  -0.961
 -0.960  -0.958  -0.940  -0.940  -0.935  -0.934  -0.910  -0.901
 -0.891  -0.889  -0.870  -0.865  -0.857  -0.857  -0.852  -0.851
 -0.848  -0.847  -0.843  -0.841  -0.841  -0.836  -0.827  -0.822
 -0.821  -0.815  -0.813  -0.806  -0.804  -0.799  -0.792  -0.786
 -0.737  -0.733  -0.728  -0.722  -0.717  -0.716  -0.713  -0.711
 -0.702  -0.700  -0.698  -0.696  -0.690  -0.685  -0.683  -0.681
 -0.679  -0.675  -0.668  -0.668  -0.649  -0.647  -0.638  -0.636
 -0.634  -0.628  -0.607  -0.603  -0.598  -0.596  -0.592  -0.590
 -0.586  -0.586  -0.584  -0.577  -0.577  -0.562  -0.562  -0.557
 -0.554  -0.545  -0.545  -0.543  -0.541  -0.538  -0.528  -0.526
 -0.525  -0.521  -0.518  -0.514  -0.510  -0.509  -0.505  -0.503
 -0.502  -0.499  -0.498  -0.497  -0.497  -0.496  -0.495  -0.491
 -0.490  -0.489  -0.488  -0.487  -0.487  -0.485  -0.484  -0.484
 -0.482  -0.480  -0.479  -0.478  -0.476  -0.470  -0.467  -0.464
 -0.463  -0.457  -0.456  -0.452  -0.444  -0.442  -0.439  -0.436
 -0.435  -0.435  -0.432  -0.429  -0.429  -0.428  -0.427  -0.426
 -0.426  -0.421  -0.420  -0.418  -0.413  -0.411  -0.407  -0.407
 -0.404  -0.402  -0.400  -0.400  -0.399  -0.398  -0.398  -0.397
 -0.395  -0.395  -0.395  -0.392  -0.392  -0.388  -0.388  -0.384
 -0.381  -0.376  -0.370  -0.362  -0.359  -0.357  -0.355  -0.351
 -0.346  -0.337  -0.322  -0.316  -0.308  -0.302  -0.301  -0.301
 -0.298  -0.297  -0.297  -0.295  -0.287  -0.283  -0.283  -0.278
 -0.275  -0.263  -0.259  -0.257  -0.225  -0.215

          Ground-State Mulliken Net Atomic Charges

     Atom                 Charge (a.u.)
  ----------------------------------------
      1 C                    -0.148681
      2 C                    -0.397000
      3 H                     0.242954
      4 C                     0.107905
      5 C                     0.080504
      6 C                    -0.388181
      7 H                     0.245583
      8 C                    -0.144708
      9 C                     0.186285
     10 C                    -0.386362
     11 H                     0.242265
     12 C                    -0.068525
     13 C                     0.230467
     14 C                     0.185693
     15 C                    -0.395286
     16 H                     0.242575
     17 C                    -0.224352
     18 H                     0.247890
     19 C                    -0.341485
     20 H                     0.244009
     21 C                    -0.344863
     22 H                     0.244364
     23 C                    -0.222149
     24 H                     0.246338
     25 B                     0.627015
     26 C                    -0.148057
     27 C                    -0.397243
     28 H                     0.244863
     29 C                     0.082936
     30 C                     0.106047
     31 C                    -0.402007
     32 H                     0.243698
     33 C                    -0.150720
     34 C                     0.182976
     35 C                    -0.384591
     36 H                     0.242260
     37 C                    -0.066941
     38 C                     0.232297
     39 C                     0.184595
     40 C                    -0.393203
     41 H                     0.241692
     42 C                    -0.224389
     43 H                     0.248130
     44 C                    -0.341547
     45 H                     0.244121
     46 C                    -0.222130
     47 H                     0.247326
     48 C                    -0.345624
     49 H                     0.244651
     50 B                     0.643461
     51 C                    -0.210832
     52 C                     0.070152
     53 C                    -0.339629
     54 H                     0.236441
     55 C                     0.250117
     56 C                    -0.330334
     57 H                     0.240565
     58 C                     0.050795
     59 N                    -0.668030
     60 C                     0.323294
     61 C                    -0.315064
     62 H                     0.258150
     63 C                    -0.230295
     64 H                     0.237693
     65 C                    -0.264179
     66 H                     0.233909
     67 C                    -0.228993
     68 H                     0.236311
     69 C                    -0.301627
     70 H                     0.253292
     71 C                     0.301564
     72 C                    -0.285440
     73 H                     0.258307
     74 C                    -0.234977
     75 H                     0.239601
     76 C                    -0.256293
     77 H                     0.236169
     78 C                    -0.234350
     79 H                     0.236272
     80 C                    -0.294764
     81 H                     0.255694
     82 C                    -0.545820
     83 H                     0.251761
     84 H                     0.239832
     85 C                    -0.554968
     86 H                     0.256877
     87 H                     0.241810
     88 C                    -0.655341
     89 H                     0.238240
     90 H                     0.221575
     91 H                     0.226898
     92 C                    -0.657382
     93 H                     0.244737
     94 H                     0.221181
     95 H                     0.225622
     96 C                    -0.252248
     97 C                     0.071097
     98 C                    -0.388568
     99 H                     0.249977
    100 C                     0.331624
    101 N                    -0.658693
    102 C                    -0.388668
    103 H                     0.247837
    104 C                     0.092395
    105 C                     0.269660
    106 C                    -0.273819
    107 H                     0.259258
    108 C                    -0.236709
    109 H                     0.240642
    110 C                    -0.252517
    111 H                     0.237153
    112 C                    -0.235080
    113 H                     0.241083
    114 C                    -0.280954
    115 H                     0.256619
    116 C                     0.255338
    117 C                    -0.273770
    118 H                     0.256365
    119 C                    -0.236577
    120 H                     0.241402
    121 C                    -0.250873
    122 H                     0.237728
    123 C                    -0.237114
    124 H                     0.241593
    125 C                    -0.267662
    126 H                     0.258576
    127 C                    -0.542636
    128 H                     0.247093
    129 H                     0.237106
    130 C                    -0.555101
    131 H                     0.258025
    132 H                     0.240207
    133 C                    -0.653588
    134 H                     0.236407
    135 H                     0.224308
    136 H                     0.220502
    137 C                    -0.653516
    138 H                     0.239155
    139 H                     0.222650
    140 H                     0.220899
  ----------------------------------------
  Sum of atomic charges =    -0.000000

                    Cartesian Multipole Moments
 -----------------------------------------------------------------
    Charge (ESU x 10^10)
                -0.0000
    Dipole Moment (Debye)
         X      -2.1447      Y       0.2959      Z      -0.9396
       Tot       2.3601
    Quadrupole Moments (Debye-Ang)
        XX    -411.8630     XY      -4.2347     YY    -460.3294
        XZ     -10.8618     YZ       1.3585     ZZ    -387.0022

 Total job time:  37935.13s(wall), 109012.31s(cpu)
        *  Thank you very much for using Q-Chem.  Have a nice day.  *
