 Q-Chem 5.1, Q-Chem, Inc., Pleasanton, CA (2018)
 Q-Chem 5.1.1 for Intel X86 EM64T Linux

User input:
--------------------------------------------------------------
$solvent
dielectric      2.03
dielectric_infi 2.02
$end

$rem
threads 8
jobtype	sp
method PBEh-3c
basis def2-mSVP
mem_static	1024
mem_total	14000
sym_ignore	true
cis_n_roots             2
cis_singlets            true
cis_triplets		false
rpa                     false
calc_soc 		true
cis_moments             true
cis_relaxed_density	true
solvent_method		pcm
$end

$pcm
StateSpecific   1
ChargeSeparation Excited
$end

$molecule
read moms1opt_chx.mol
$end

--------------------------------------------------------------

   15   -3084.7928868770      6.19e-09  Convergence criterion met
 Total energy in the final basis set =    -3084.7928868770
 Total job time:  19537.69s(wall), 54120.13s(cpu)
        *  Thank you very much for using Q-Chem.  Have a nice day.  *
 Q-Chem 5.1, Q-Chem, Inc., Pleasanton, CA (2018)
 Q-Chem 5.1.1 for Intel X86 EM64T Linux

User input:
--------------------------------------------------------------
$rem
threads 8
jobtype sp
method PBEh-3c
basis def2-mSVP
mem_static      1024
mem_total       14000
sym_ignore      true
cis_n_roots             6
cis_singlets            true
cis_triplets            true
rpa                     false
calc_soc                true
cis_moments             true
cis_relaxed_density     true
solvent_method          pcm
$end

$molecule
read
$end

$pcm
statespecific           Marcus
$end

$solvent
dielectric      2.03
dielectric_infi 2.02
$end

--------------------------------------------------------------

             Standard Nuclear Orientation (Angstroms)
    I     Atom           X                Y                Z
 ----------------------------------------------------------------
    1      C       0.0000000000     0.0000000000     0.0000000000
    2      C       0.0000000000     0.0000000000     1.4121850000
    3      H       0.9468060364     0.0000000000     1.9417349381
    4      C      -1.1777500225     0.0120720164     2.1199271622
    5      C      -2.4171403872     0.0369408835     1.4164206681
    6      C      -2.4430924880     0.0545958155     0.0480936254
    7      H      -3.4010504552     0.0898971342    -0.4629141074
    8      C      -1.2453964572     0.0340197879    -0.6961644012
    9      C      -3.5006965705     0.0627714920     2.3918550735
   10      C      -4.8717459384     0.0928441307     2.3217863687
   11      H      -5.3947370388     0.0943925332     1.3728098955
   12      C      -2.8885215076     0.0572194834     3.6598684456
   13      C      -3.5939506085     0.0840595926     4.8608213359
   14      C      -1.4817948947     0.0252997397     3.5522657544
   15      C      -0.7512017179     0.0180176369     4.7142540639
   16      H       0.3314590117    -0.0089933149     4.7065531726
   17      C      -5.6116734497     0.1195656064     3.5257680762
   18      H      -6.6930283938     0.1422212502     3.4701171537
   19      C      -5.0068628034     0.1165279569     4.7618888982
   20      H      -5.6126575004     0.1381488992     5.6598145882
   21      C      -2.8123963921     0.0770662473     6.0406014745
   22      H      -3.2926754332     0.0966551773     7.0114181616
   23      C      -1.4396477554     0.0446402228     5.9505381418
   24      H      -0.8567754356     0.0382177970     6.8628475704
   25      B      -1.2646903958     0.0964363934    -2.2229002582
   26      C       0.0387978575     0.0331481394    -3.0159314766
   27      C       0.0376895602     0.0692347719    -4.4256792451
   28      H      -0.9054405636     0.1266968636    -4.9624741984
   29      C       1.2141353657     0.0372264263    -5.1274218043
   30      C       2.4661241043    -0.0221269344    -4.4464113462
   31      C       2.4885776622    -0.0421442388    -3.0711012708
   32      H       3.4363967240    -0.0709453131    -2.5426026141
   33      C       1.2900642321    -0.0150195950    -2.3259543527
   34      C       1.4710315143     0.0624736326    -6.5620842166
   35      C       0.6857638652     0.1163069220    -7.6866114850
   36      H      -0.3955022458     0.1502091866    -7.6265048561
   37      C       2.8701044677     0.0190496064    -6.7132257618
   38      C       3.5168770651     0.0291888228    -7.9454855471
   39      C       3.5193515528    -0.0334485809    -5.4613294825
   40      C       4.8903349718    -0.0776092139    -5.4515953687
   41      H       5.4526250310    -0.1184827304    -4.5272386481
   42      C       1.3167722311     0.1265375679    -8.9507793512
   43      H       0.6986629938     0.1686403596    -9.8389927476
   44      C       2.6854692241     0.0852229083    -9.0912933127
   45      H       3.1264074808     0.0953253965   -10.0807417029
   46      C       5.5774902556    -0.0685803737    -6.6887080901
   47      H       6.6593705561    -0.1035369514    -6.6747410124
   48      C       4.9309186435    -0.0173755210    -7.9024195559
   49      H       5.5033697675    -0.0125795234    -8.8219157773
   50      B       1.3213402026     0.0177161351    -0.7893081847
   51      C       2.6716810446     0.1693988176     0.0131977475
   52      C       3.2373998885    -0.9067429788     0.7131784318
   53      C       4.3465238419    -0.7082167114     1.5271950890
   54      H       4.7715405291    -1.5388887772     2.0799511025
   55      C       4.9004697855     0.5552285431     1.6677820138
   56      C       4.3682931194     1.6175028159     0.9536116295
   57      H       4.8048166907     2.6048259225     1.0622601251
   58      C       3.2657796316     1.4363455951     0.1274553605
   59      N       5.9571262930     0.7653699222     2.5893483354
   60      C       7.1136887382     1.4231079095     2.1621888560
   61      C       7.7982912108     2.3191089158     2.9866449749
   62      H       7.4378885085     2.5208606178     3.9866505379
   63      C       8.9322750488     2.9690065699     2.5267914461
   64      H       9.4432305648     3.6615623053     3.1837950496
   65      C       9.3997179831     2.7606639026     1.2378656769
   66      H      10.2800549376     3.2781341080     0.8808533998
   67      C       8.7139530187     1.8801447304     0.4120527456
   68      H       9.0604400673     1.7021039533    -0.5980726159
   69      C       7.5905661216     1.2110992461     0.8655215545
   70      H       7.0720605491     0.5241684173     0.2091872775
   71      C       5.6647632517     0.5756412781     3.9491995669
   72      C       6.6287154498     0.0716191197     4.8228310908
   73      H       7.6157712881    -0.1699500723     4.4498410737
   74      C       6.3257441299    -0.1258112303     6.1597417043
   75      H       7.0861718342    -0.5194211502     6.8220997037
   76      C       5.0564640244     0.1542730919     6.6476133290
   77      H       4.8213675020    -0.0109142040     7.6906660830
   78      C       4.0923905907     0.6428994112     5.7780636164
   79      H       3.0977384815     0.8699287163     6.1412069633
   80      C       4.3901904613     0.8599478720     4.4425386150
   81      H       3.6294794955     1.2495633676     3.7778980692
   82      C       2.6743340485    -2.2972097673     0.5674356654
   83      H       1.5823858475    -2.2595499547     0.5529083588
   84      H       2.9475815119    -2.8957689176     1.4401603494
   85      C       2.6798353299     2.6488177665    -0.5560008482
   86      H       2.2727453897     2.3756501130    -1.5312317476
   87      H       3.4765061502     3.3717774452    -0.7505383576
   88      C       3.1651036696    -2.9940556000    -0.6996897640
   89      H       2.8576351304    -2.4495442720    -1.5926621678
   90      H       4.2533915737    -3.0680999920    -0.7116078548
   91      H       2.7582423790    -4.0036271327    -0.7726157700
   92      C       1.5845462308     3.3221282151     0.2705379950
   93      H       0.7515169818     2.6431141683     0.4516314365
   94      H       1.9648715264     3.6481190601     1.2397975127
   95      H       1.1921870854     4.1993722258    -0.2470378716
   96      C      -2.6550819901     0.3756043692    -2.9314233608
   97      C      -3.0203815734     1.7207274925    -3.2136432150
   98      C      -4.2602182036     2.0115788305    -3.7234852207
   99      H      -4.5107540450     3.0367600661    -3.9660959976
  100      C      -5.1981117204     0.9879014559    -3.9710032804
  101      N      -6.4444318651     1.3039841053    -4.4272883160
  102      C      -4.8345229257    -0.3538460956    -3.7239682392
  103      H      -5.5601602907    -1.1429754880    -3.8773128924
  104      C      -3.5936444748    -0.6555862936    -3.2182536995
  105      C      -7.2215760099     0.3886742974    -5.1719219015
  106      C      -6.6504668186    -0.3039083927    -6.2366996861
  107      H      -5.6124883943    -0.1423787532    -6.4975823424
  108      C      -7.4310664308    -1.1775308258    -6.9740570076
  109      H      -6.9924437862    -1.7108109596    -7.8063536165
  110      C      -8.7712267219    -1.3554711063    -6.6591737431
  111      H      -9.3769891327    -2.0376602507    -7.2401941187
  112      C      -9.3365940912    -0.6526111732    -5.6026993408
  113      H     -10.3798341031    -0.7912973327    -5.3536226257
  114      C      -8.5686192924     0.2240628414    -4.8584020076
  115      H      -9.0055391132     0.7678764616    -4.0309713235
  116      C      -7.0073635789     2.5768343392    -4.1704602357
  117      C      -7.5908985781     3.2896514488    -5.2139522752
  118      H      -7.5979148993     2.8812752304    -6.2161062889
  119      C      -8.1395817102     4.5344885525    -4.9620165724
  120      H      -8.5807003742     5.0969468052    -5.7736515667
  121      C      -8.1158127149     5.0638774340    -3.6780532608
  122      H      -8.5464888757     6.0374813857    -3.4867261273
  123      C      -7.5434729997     4.3424355157    -2.6394466026
  124      H      -7.5348899761     4.7457541133    -1.6360766382
  125      C      -6.9897904719     3.0960374288    -2.8780779865
  126      H      -6.5592289900     2.5239303333    -2.0662513995
  127      C      -3.2407387435    -2.0942274979    -2.9703775164
  128      H      -2.6050802028    -2.1747585242    -2.0869703017
  129      H      -4.1499964664    -2.6608224589    -2.7557239414
  130      C      -2.0936629762     2.8671829632    -2.9128857508
  131      H      -1.0593376590     2.5251514652    -2.8986597392
  132      H      -2.1661966211     3.6089295531    -3.7128529975
  133      C      -2.5278688012    -2.7085525128    -4.1733195624
  134      H      -1.5934577867    -2.1897868398    -4.3848897527
  135      H      -2.2882525586    -3.7542752907    -3.9827023355
  136      H      -3.1528921709    -2.6630323117    -5.0665803059
  137      C      -2.4367456567     3.5241995313    -1.5763890142
  138      H      -2.3684415783     2.8091956445    -0.7568794946
  139      H      -1.7458565702     4.3397384386    -1.3633408102
  140      H      -3.4481437275     3.9348273693    -1.5850769127
 ----------------------------------------------------------------

   15   -3084.7928353609      6.19e-09  Convergence criterion met
 Total energy in the final basis set =    -3084.7928353609

         TDDFT/TDA Excitation Energies
 ---------------------------------------------------

 Excited state   1: excitation energy (eV) =    2.1009
 Total energy for state  1:                 -3084.71562909 au
    Multiplicity: Triplet
    Trans. Mom.:  0.0000 X   0.0000 Y   0.0000 Z
    Strength   :     0.0000000000
    D(270) --> V(  1) amplitude =  0.9493

 Excited state   2: excitation energy (eV) =    2.1351
 Total energy for state  2:                 -3084.71437359 au
    Multiplicity: Singlet
    Trans. Mom.:  0.2734 X  -0.0529 Y   0.3091 Z
    Strength   :     0.0090540604
    D(270) --> V(  1) amplitude =  0.9730

 Excited state   3: excitation energy (eV) =    2.2215
 Total energy for state  3:                 -3084.71119803 au
    Multiplicity: Triplet
    Trans. Mom.:  0.0000 X   0.0000 Y   0.0000 Z
    Strength   :     0.0000000000
    D(267) --> V(  1) amplitude =  0.8803

 Excited state   4: excitation energy (eV) =    2.4284
 Total energy for state  4:                 -3084.70359512 au
    Multiplicity: Triplet
    Trans. Mom.:  0.0000 X   0.0000 Y   0.0000 Z
    Strength   :     0.0000000000
    D(266) --> V(  2) amplitude = -0.4661
    D(268) --> V(  1) amplitude =  0.7778

 Excited state   5: excitation energy (eV) =    2.4788
 Total energy for state  5:                 -3084.70174145 au
    Multiplicity: Triplet
    Trans. Mom.:  0.0000 X   0.0000 Y   0.0000 Z
    Strength   :     0.0000000000
    D(266) --> V(  1) amplitude =  0.7009
    D(266) --> V(  4) amplitude =  0.2145
    D(268) --> V(  2) amplitude = -0.5012
    D(269) --> V(  1) amplitude =  0.3367

 Excited state   6: excitation energy (eV) =    2.5619
 Total energy for state  6:                 -3084.69868552 au
    Multiplicity: Triplet
    Trans. Mom.:  0.0000 X   0.0000 Y   0.0000 Z
    Strength   :     0.0000000000
    D(266) --> V(  1) amplitude = -0.2436
    D(269) --> V(  1) amplitude =  0.8732

 Excited state   7: excitation energy (eV) =    2.5813
 Total energy for state  7:                 -3084.69797273 au
    Multiplicity: Singlet
    Trans. Mom.: -0.5880 X  -0.0523 Y  -0.2461 Z
    Strength   :     0.0258635242
    D(269) --> V(  1) amplitude =  0.9725

 Excited state   8: excitation energy (eV) =    2.7360
 Total energy for state  8:                 -3084.69228945 au
    Multiplicity: Triplet
    Trans. Mom.:  0.0000 X   0.0000 Y   0.0000 Z
    Strength   :     0.0000000000
    D(261) --> V(  1) amplitude = -0.3844
    D(263) --> V(  1) amplitude =  0.5691
    D(267) --> V(  2) amplitude = -0.5367

 Excited state   9: excitation energy (eV) =    2.8798
 Total energy for state  9:                 -3084.68700641 au
    Multiplicity: Singlet
    Trans. Mom.:  0.0621 X   0.0133 Y  -0.1517 Z
    Strength   :     0.0019082826
    D(267) --> V(  1) amplitude =  0.9461

 Excited state  10: excitation energy (eV) =    3.1200
 Total energy for state 10:                 -3084.67817865 au
    Multiplicity: Singlet
    Trans. Mom.:  1.9387 X  -0.0174 Y  -3.4928 Z
    Strength   :     1.2198633335
    D(268) --> V(  1) amplitude =  0.9342

 Excited state  11: excitation energy (eV) =    3.3984
 Total energy for state 11:                 -3084.66794656 au
    Multiplicity: Singlet
    Trans. Mom.:  0.1980 X  -0.0378 Y   0.0628 Z
    Strength   :     0.0037107794
    D(266) --> V(  1) amplitude =  0.3283
    D(270) --> V(  2) amplitude =  0.9283

 Excited state  12: excitation energy (eV) =    3.4172
 Total energy for state 12:                 -3084.66725506 au
    Multiplicity: Singlet
    Trans. Mom.:  0.0567 X  -0.1070 Y  -0.2451 Z
    Strength   :     0.0062559650
    D(266) --> V(  1) amplitude =  0.8740
    D(270) --> V(  2) amplitude = -0.3516

 ---------------------------------------------------

                    Orbital Energies (a.u.)
 --------------------------------------------------------------

 Alpha MOs
 -- Occupied --
-14.670 -14.669 -10.492 -10.492 -10.491 -10.491 -10.486 -10.483
-10.467 -10.466 -10.466 -10.466 -10.466 -10.466 -10.465 -10.465
-10.465 -10.464 -10.464 -10.463 -10.463 -10.463 -10.462 -10.462
-10.462 -10.462 -10.460 -10.460 -10.459 -10.459 -10.457 -10.455
-10.455 -10.453 -10.453 -10.453 -10.450 -10.450 -10.450 -10.450
-10.449 -10.449 -10.448 -10.448 -10.448 -10.448 -10.448 -10.448
-10.448 -10.447 -10.446 -10.446 -10.445 -10.445 -10.445 -10.444
-10.443 -10.441 -10.441 -10.438 -10.438 -10.438 -10.438 -10.437
-10.436 -10.435 -10.435 -10.434 -10.432 -10.431 -10.430 -10.428
-10.427 -10.421 -10.420 -10.419 -10.418 -10.418  -6.949  -6.944
 -1.086  -1.080  -1.017  -1.017  -0.965  -0.964  -0.961  -0.960
 -0.959  -0.958  -0.940  -0.939  -0.934  -0.934  -0.909  -0.900
 -0.890  -0.889  -0.869  -0.865  -0.857  -0.856  -0.853  -0.850
 -0.848  -0.847  -0.843  -0.842  -0.840  -0.835  -0.826  -0.822
 -0.820  -0.814  -0.813  -0.805  -0.803  -0.799  -0.791  -0.786
 -0.737  -0.732  -0.728  -0.722  -0.717  -0.715  -0.713  -0.711
 -0.701  -0.700  -0.698  -0.696  -0.690  -0.686  -0.682  -0.681
 -0.678  -0.676  -0.668  -0.667  -0.649  -0.646  -0.638  -0.636
 -0.633  -0.629  -0.606  -0.604  -0.597  -0.595  -0.592  -0.589
 -0.586  -0.585  -0.583  -0.577  -0.577  -0.563  -0.561  -0.556
 -0.554  -0.545  -0.544  -0.542  -0.541  -0.537  -0.528  -0.527
 -0.525  -0.520  -0.518  -0.515  -0.510  -0.509  -0.505  -0.503
 -0.502  -0.499  -0.498  -0.497  -0.496  -0.495  -0.494  -0.490
 -0.490  -0.489  -0.488  -0.487  -0.486  -0.486  -0.484  -0.483
 -0.482  -0.479  -0.478  -0.477  -0.476  -0.470  -0.467  -0.464
 -0.462  -0.456  -0.456  -0.451  -0.444  -0.441  -0.438  -0.436
 -0.435  -0.435  -0.432  -0.429  -0.428  -0.427  -0.426  -0.426
 -0.425  -0.422  -0.420  -0.417  -0.414  -0.410  -0.408  -0.406
 -0.404  -0.401  -0.401  -0.400  -0.399  -0.397  -0.397  -0.396
 -0.395  -0.394  -0.394  -0.392  -0.392  -0.388  -0.387  -0.384
 -0.380  -0.375  -0.369  -0.362  -0.358  -0.356  -0.354  -0.350
 -0.346  -0.337  -0.321  -0.315  -0.309  -0.302  -0.301  -0.300
 -0.298  -0.297  -0.296  -0.294  -0.286  -0.283  -0.282  -0.277
 -0.275  -0.263  -0.258  -0.256  -0.224  -0.215

          Ground-State Mulliken Net Atomic Charges

     Atom                 Charge (a.u.)
  ----------------------------------------
      1 C                    -0.148625
      2 C                    -0.396391
      3 H                     0.241726
      4 C                     0.109735
      5 C                     0.082291
      6 C                    -0.387345
      7 H                     0.243653
      8 C                    -0.144407
      9 C                     0.188268
     10 C                    -0.385374
     11 H                     0.238868
     12 C                    -0.068220
     13 C                     0.233514
     14 C                     0.187548
     15 C                    -0.394316
     16 H                     0.239767
     17 C                    -0.221748
     18 H                     0.244809
     19 C                    -0.340295
     20 H                     0.240779
     21 C                    -0.343675
     22 H                     0.241157
     23 C                    -0.219460
     24 H                     0.243395
     25 B                     0.627223
     26 C                    -0.147549
     27 C                    -0.396731
     28 H                     0.242855
     29 C                     0.084722
     30 C                     0.107924
     31 C                    -0.401554
     32 H                     0.242321
     33 C                    -0.150617
     34 C                     0.184920
     35 C                    -0.383586
     36 H                     0.238891
     37 C                    -0.066584
     38 C                     0.235346
     39 C                     0.186464
     40 C                    -0.392118
     41 H                     0.238749
     42 C                    -0.221772
     43 H                     0.245077
     44 C                    -0.340366
     45 H                     0.240897
     46 C                    -0.219489
     47 H                     0.244460
     48 C                    -0.344431
     49 H                     0.241451
     50 B                     0.644658
     51 C                    -0.211160
     52 C                     0.071173
     53 C                    -0.337940
     54 H                     0.234638
     55 C                     0.249172
     56 C                    -0.328766
     57 H                     0.239123
     58 C                     0.052084
     59 N                    -0.668164
     60 C                     0.323750
     61 C                    -0.313834
     62 H                     0.256950
     63 C                    -0.227792
     64 H                     0.234954
     65 C                    -0.261538
     66 H                     0.231215
     67 C                    -0.226450
     68 H                     0.233460
     69 C                    -0.299697
     70 H                     0.251842
     71 C                     0.302228
     72 C                    -0.284100
     73 H                     0.256895
     74 C                    -0.232599
     75 H                     0.236884
     76 C                    -0.253761
     77 H                     0.233424
     78 C                    -0.231880
     79 H                     0.233162
     80 C                    -0.292976
     81 H                     0.254360
     82 C                    -0.545746
     83 H                     0.252007
     84 H                     0.238630
     85 C                    -0.555140
     86 H                     0.257242
     87 H                     0.240740
     88 C                    -0.654223
     89 H                     0.238856
     90 H                     0.220907
     91 H                     0.225966
     92 C                    -0.656082
     93 H                     0.245507
     94 H                     0.220468
     95 H                     0.224410
     96 C                    -0.252259
     97 C                     0.072664
     98 C                    -0.388225
     99 H                     0.248446
    100 C                     0.331765
    101 N                    -0.659092
    102 C                    -0.388925
    103 H                     0.246202
    104 C                     0.093780
    105 C                     0.269438
    106 C                    -0.272178
    107 H                     0.257661
    108 C                    -0.234571
    109 H                     0.238348
    110 C                    -0.249947
    111 H                     0.234957
    112 C                    -0.232901
    113 H                     0.238739
    114 C                    -0.279001
    115 H                     0.254706
    116 C                     0.255492
    117 C                    -0.272099
    118 H                     0.254485
    119 C                    -0.234318
    120 H                     0.239041
    121 C                    -0.248468
    122 H                     0.235502
    123 C                    -0.234949
    124 H                     0.239399
    125 C                    -0.266193
    126 H                     0.256933
    127 C                    -0.542556
    128 H                     0.247781
    129 H                     0.235594
    130 C                    -0.555006
    131 H                     0.258544
    132 H                     0.238797
    133 C                    -0.652625
    134 H                     0.237493
    135 H                     0.223676
    136 H                     0.219374
    137 C                    -0.652514
    138 H                     0.240480
    139 H                     0.221901
    140 H                     0.219613
  ----------------------------------------
  Sum of atomic charges =    -0.000000

                    Cartesian Multipole Moments
 -----------------------------------------------------------------
    Charge (ESU x 10^10)
                -0.0000
    Dipole Moment (Debye)
         X      -2.0594      Y       0.2645      Z      -0.9103
       Tot       2.2671
    Quadrupole Moments (Debye-Ang)
        XX    -413.4818     XY      -4.0538     YY    -460.6879
        XZ     -10.9952     YZ       1.3871     ZZ    -389.3264

 Total job time:  40036.80s(wall), 111525.15s(cpu)
        *  Thank you very much for using Q-Chem.  Have a nice day.  *
