 Q-Chem 5.1, Q-Chem, Inc., Pleasanton, CA (2018)
 Q-Chem 5.1.1 for Intel X86 EM64T Linux

User input:
--------------------------------------------------------------
$solvent
dielectric      1.0001
dielectric_infi 1.00009
$end

$rem
threads 8
jobtype	sp
method PBEh-3c
basis def2-mSVP
mem_static	1024
mem_total	14000
sym_ignore	true
cis_n_roots             2
cis_singlets            false
cis_triplets		true
rpa                     false
calc_soc 		true
cis_moments             true
cis_relaxed_density	true
solvent_method		pcm
$end

$pcm
StateSpecific   1
ChargeSeparation Excited
$end

$molecule
read ut1opt_vac.mol
$end

--------------------------------------------------------------

   24   -3084.6982330882      8.68e-09  Convergence criterion met
 Total energy in the final basis set =    -3084.6982330882

         TDDFT/TDA Excitation Energies
 ---------------------------------------------------

 Excited state   1: excitation energy (eV) =    0.2811
 Total energy for state  1:                 -3084.68790322 au
    <S**2>     :  2.0687
    Trans. Mom.: -0.7992 X   0.0132 Y  -0.5063 Z
    Strength   :     0.0061654922
    D(268) --> S(  1) amplitude = -0.2059 beta
    D(269) --> S(  1) amplitude =  0.9751 beta

 Excited state   2: excitation energy (eV) =    0.3425
 Total energy for state  2:                 -3084.68564470 au
    <S**2>     :  2.0653
    Trans. Mom.: -0.9645 X   0.1205 Y  -0.2981 Z
    Strength   :     0.0086752828
    D(268) --> S(  1) amplitude =  0.9720 beta
    D(269) --> S(  1) amplitude =  0.2061 beta

 ---------------------------------------------------

                    Orbital Energies (a.u.)
 --------------------------------------------------------------

 Alpha MOs
 -- Occupied --
-14.775 -14.649 -10.558 -10.548 -10.547 -10.504 -10.504 -10.504
-10.504 -10.498 -10.498 -10.498 -10.497 -10.497 -10.497 -10.492
-10.491 -10.490 -10.489 -10.478 -10.473 -10.472 -10.458 -10.449
-10.445 -10.443 -10.442 -10.442 -10.442 -10.441 -10.440 -10.440
-10.440 -10.440 -10.439 -10.437 -10.437 -10.437 -10.437 -10.436
-10.436 -10.434 -10.434 -10.433 -10.432 -10.431 -10.431 -10.431
-10.431 -10.428 -10.428 -10.428 -10.427 -10.427 -10.426 -10.426
-10.426 -10.425 -10.425 -10.424 -10.424 -10.424 -10.423 -10.421
-10.421 -10.419 -10.418 -10.410 -10.409 -10.408 -10.407 -10.404
-10.403 -10.397 -10.396 -10.394 -10.394 -10.392  -6.895  -6.889
 -1.169  -1.059  -1.018  -1.014  -0.993  -0.989  -0.989  -0.943
 -0.938  -0.932  -0.930  -0.922  -0.919  -0.915  -0.910  -0.910
 -0.907  -0.894  -0.893  -0.879  -0.870  -0.863  -0.860  -0.843
 -0.834  -0.834  -0.833  -0.827  -0.826  -0.825  -0.824  -0.822
 -0.820  -0.799  -0.794  -0.789  -0.786  -0.775  -0.774  -0.768
 -0.767  -0.765  -0.741  -0.735  -0.731  -0.717  -0.708  -0.706
 -0.703  -0.695  -0.694  -0.688  -0.688  -0.679  -0.676  -0.670
 -0.665  -0.664  -0.657  -0.655  -0.651  -0.649  -0.638  -0.635
 -0.623  -0.619  -0.616  -0.615  -0.606  -0.605  -0.600  -0.590
 -0.587  -0.575  -0.572  -0.571  -0.567  -0.567  -0.564  -0.559
 -0.556  -0.551  -0.551  -0.547  -0.546  -0.543  -0.539  -0.536
 -0.532  -0.524  -0.523  -0.520  -0.517  -0.515  -0.505  -0.504
 -0.503  -0.503  -0.498  -0.495  -0.492  -0.492  -0.483  -0.483
 -0.481  -0.481  -0.481  -0.477  -0.475  -0.473  -0.470  -0.468
 -0.467  -0.467  -0.465  -0.465  -0.464  -0.461  -0.460  -0.460
 -0.459  -0.459  -0.456  -0.455  -0.453  -0.453  -0.449  -0.443
 -0.442  -0.441  -0.440  -0.431  -0.427  -0.421  -0.418  -0.417
 -0.415  -0.413  -0.410  -0.409  -0.407  -0.405  -0.403  -0.402
 -0.401  -0.397  -0.396  -0.394  -0.391  -0.389  -0.386  -0.382
 -0.378  -0.376  -0.376  -0.374  -0.373  -0.372  -0.369  -0.366
 -0.366  -0.360  -0.359  -0.352  -0.352  -0.346  -0.346  -0.344
 -0.342  -0.338  -0.332  -0.323  -0.322  -0.313  -0.310  -0.296
 -0.290  -0.286  -0.283  -0.282  -0.276  -0.276  -0.274  -0.261
 -0.258  -0.248  -0.242  -0.232  -0.227  -0.200  -0.141

 Beta MOs
 -- Occupied --
-14.767 -14.649 -10.556 -10.549 -10.548 -10.503 -10.503 -10.503
-10.503 -10.499 -10.498 -10.498 -10.497 -10.497 -10.496 -10.492
-10.490 -10.490 -10.488 -10.473 -10.473 -10.472 -10.457 -10.448
-10.445 -10.443 -10.442 -10.442 -10.442 -10.441 -10.441 -10.441
-10.440 -10.439 -10.439 -10.438 -10.438 -10.436 -10.436 -10.436
-10.435 -10.435 -10.435 -10.433 -10.432 -10.431 -10.431 -10.431
-10.431 -10.428 -10.428 -10.427 -10.427 -10.427 -10.426 -10.426
-10.426 -10.425 -10.424 -10.424 -10.423 -10.423 -10.423 -10.421
-10.421 -10.420 -10.419 -10.410 -10.410 -10.407 -10.407 -10.403
-10.403 -10.397 -10.396 -10.393 -10.393 -10.392  -6.892  -6.887
 -1.156  -1.059  -1.017  -1.010  -0.989  -0.988  -0.987  -0.943
 -0.937  -0.931  -0.929  -0.921  -0.919  -0.910  -0.910  -0.909
 -0.906  -0.892  -0.891  -0.877  -0.870  -0.862  -0.857  -0.843
 -0.834  -0.832  -0.828  -0.826  -0.824  -0.823  -0.823  -0.822
 -0.820  -0.799  -0.791  -0.787  -0.785  -0.774  -0.773  -0.768
 -0.764  -0.760  -0.739  -0.733  -0.729  -0.716  -0.707  -0.704
 -0.702  -0.694  -0.694  -0.688  -0.686  -0.679  -0.675  -0.669
 -0.664  -0.664  -0.656  -0.654  -0.648  -0.646  -0.636  -0.633
 -0.622  -0.618  -0.616  -0.613  -0.605  -0.603  -0.590  -0.587
 -0.586  -0.573  -0.571  -0.570  -0.567  -0.566  -0.562  -0.559
 -0.555  -0.550  -0.550  -0.545  -0.544  -0.542  -0.538  -0.536
 -0.532  -0.523  -0.520  -0.518  -0.516  -0.514  -0.504  -0.503
 -0.502  -0.497  -0.494  -0.494  -0.491  -0.486  -0.481  -0.481
 -0.480  -0.480  -0.477  -0.476  -0.474  -0.472  -0.469  -0.467
 -0.467  -0.465  -0.465  -0.464  -0.463  -0.460  -0.459  -0.458
 -0.457  -0.456  -0.454  -0.453  -0.452  -0.451  -0.449  -0.443
 -0.442  -0.440  -0.433  -0.430  -0.426  -0.420  -0.417  -0.417
 -0.413  -0.413  -0.408  -0.407  -0.405  -0.404  -0.402  -0.401
 -0.396  -0.396  -0.392  -0.389  -0.388  -0.386  -0.385  -0.382
 -0.378  -0.376  -0.375  -0.372  -0.371  -0.371  -0.368  -0.365
 -0.364  -0.359  -0.356  -0.349  -0.346  -0.344  -0.343  -0.340
 -0.336  -0.332  -0.321  -0.320  -0.318  -0.308  -0.304  -0.289
 -0.286  -0.285  -0.281  -0.276  -0.272  -0.272  -0.260  -0.248
 -0.248  -0.234  -0.229  -0.220  -0.200

          Ground-State Mulliken Net Atomic Charges

     Atom                 Charge (a.u.)    Spin (a.u.)
  --------------------------------------------------------
      1 C                    -0.142489       0.074605
      2 C                    -0.393047      -0.067280
      3 H                     0.222124       0.002860
      4 C                     0.075828       0.108253
      5 C                     0.103490       0.007981
      6 C                    -0.405215       0.015648
      7 H                     0.177216      -0.003000
      8 C                    -0.130950      -0.005452
      9 C                     0.196146      -0.058959
     10 C                    -0.385169       0.084983
     11 H                     0.211220      -0.005049
     12 C                    -0.075886       0.021442
     13 C                     0.254175      -0.034067
     14 C                     0.199757      -0.032969
     15 C                    -0.395981       0.053595
     16 H                     0.188613      -0.003242
     17 C                    -0.202078      -0.051619
     18 H                     0.216851       0.002524
     19 C                    -0.343007       0.077160
     20 H                     0.208663      -0.004652
     21 C                    -0.346302       0.050602
     22 H                     0.209580      -0.002978
     23 C                    -0.199538      -0.037626
     24 H                     0.208376       0.001927
     25 B                     0.494740       0.374867
     26 C                    -0.120637       0.006926
     27 C                    -0.406931       0.018952
     28 H                     0.180632      -0.002757
     29 C                     0.100185       0.005951
     30 C                     0.076320       0.123990
     31 C                    -0.396112      -0.072499
     32 H                     0.222585       0.003070
     33 C                    -0.139053       0.083630
     34 C                     0.198480      -0.065113
     35 C                    -0.387131       0.095673
     36 H                     0.213449      -0.005689
     37 C                    -0.076278       0.025185
     38 C                     0.252378      -0.038481
     39 C                     0.200452      -0.035987
     40 C                    -0.395814       0.058367
     41 H                     0.190333      -0.003528
     42 C                    -0.202029      -0.057953
     43 H                     0.217258       0.002817
     44 C                    -0.342312       0.088087
     45 H                     0.209018      -0.005299
     46 C                    -0.345162       0.055356
     47 H                     0.209506      -0.003254
     48 C                    -0.199403      -0.041433
     49 H                     0.208944       0.002126
     50 B                     0.561456       0.260393
     51 C                    -0.123811       0.375321
     52 C                     0.095902      -0.073999
     53 C                    -0.354696       0.112911
     54 H                     0.264884      -0.006236
     55 C                     0.339940       0.099528
     56 N                    -0.600520       0.288515
     57 C                     0.268641      -0.064148
     58 C                    -0.256715       0.075987
     59 H                     0.260494      -0.004076
     60 C                    -0.216756      -0.050764
     61 H                     0.244886       0.002601
     62 C                    -0.216960       0.085305
     63 H                     0.244847      -0.004762
     64 C                    -0.217825      -0.054944
     65 H                     0.247788       0.003107
     66 C                    -0.259650       0.079662
     67 H                     0.270558      -0.004201
     68 C                    -0.359818       0.105869
     69 H                     0.265896      -0.005906
     70 C                     0.078976      -0.076702
     71 C                     0.240452      -0.057904
     72 C                    -0.247236       0.066481
     73 H                     0.257762      -0.003620
     74 C                    -0.218706      -0.043575
     75 H                     0.245088       0.002295
     76 C                    -0.215445       0.074036
     77 H                     0.245469      -0.004138
     78 C                    -0.218340      -0.048039
     79 H                     0.249843       0.002790
     80 C                    -0.247070       0.070249
     81 H                     0.267963      -0.003718
     82 C                    -0.541836       0.006898
     83 H                     0.288280      -0.001809
     84 H                     0.223051      -0.000142
     85 C                    -0.549500       0.007633
     86 H                     0.299349      -0.002537
     87 H                     0.225044       0.000513
     88 C                    -0.655959       0.000459
     89 H                     0.279371      -0.001052
     90 H                     0.232458      -0.000174
     91 H                     0.204226       0.000073
     92 C                    -0.652403      -0.001053
     93 H                     0.278962      -0.000748
     94 H                     0.230580      -0.000467
     95 H                     0.202447      -0.000140
     96 C                    -0.202345      -0.025259
     97 C                     0.069322       0.004148
     98 C                    -0.340086      -0.001419
     99 H                     0.222034       0.000373
    100 C                     0.287139       0.001974
    101 C                    -0.349328      -0.001476
    102 H                     0.225518       0.000350
    103 C                     0.060096       0.004402
    104 N                    -0.672283       0.000898
    105 C                     0.306607      -0.000223
    106 C                    -0.290105       0.000365
    107 H                     0.244846      -0.000020
    108 C                    -0.212514      -0.000255
    109 H                     0.214683       0.000013
    110 C                    -0.241659       0.000447
    111 H                     0.211567      -0.000025
    112 C                    -0.212586      -0.000273
    113 H                     0.215693       0.000015
    114 C                    -0.279877       0.000380
    115 H                     0.245062      -0.000021
    116 C                     0.290418      -0.000200
    117 C                    -0.274672       0.000352
    118 H                     0.244228      -0.000021
    119 C                    -0.214196      -0.000249
    120 H                     0.216172       0.000015
    121 C                    -0.238259       0.000404
    122 H                     0.213084      -0.000023
    123 C                    -0.215141      -0.000234
    124 H                     0.215679       0.000011
    125 C                    -0.273403       0.000331
    126 H                     0.242559      -0.000017
    127 C                    -0.540014       0.002735
    128 H                     0.255503      -0.001709
    129 H                     0.220140       0.000317
    130 C                    -0.543287       0.003465
    131 H                     0.257938      -0.002440
    132 H                     0.221147       0.000321
    133 C                    -0.646032      -0.000195
    134 H                     0.245180      -0.000197
    135 H                     0.209584       0.000006
    136 H                     0.213009      -0.000059
    137 C                    -0.643299      -0.000229
    138 H                     0.247146      -0.000208
    139 H                     0.212972      -0.000047
    140 H                     0.204593       0.000011
  --------------------------------------------------------
  Sum of atomic charges =    -0.000000

                    Cartesian Multipole Moments
 -----------------------------------------------------------------
    Charge (ESU x 10^10)
                -0.0000
    Dipole Moment (Debye)
         X     -18.8725      Y       2.7085      Z      -9.7899
       Tot      21.4324
    Quadrupole Moments (Debye-Ang)
        XX    -338.7495     XY     -24.0656     YY    -452.8097
        XZ      91.2224     YZ      -7.0198     ZZ    -391.4991

 Total job time:  23172.27s(wall), 79398.05s(cpu)
        *  Thank you very much for using Q-Chem.  Have a nice day.  *
 Q-Chem 5.1, Q-Chem, Inc., Pleasanton, CA (2018)
 Q-Chem 5.1.1 for Intel X86 EM64T Linux

User input:
--------------------------------------------------------------
$rem
threads 8
jobtype sp
method PBEh-3c
basis def2-mSVP
mem_static      1024
mem_total       14000
sym_ignore      true
cis_n_roots             6
cis_singlets            true
cis_triplets            true
rpa                     false
calc_soc                true
cis_moments             true
cis_relaxed_density     true
solvent_method          pcm
$end

$molecule
read
$end

$pcm
statespecific           Marcus
$end

$solvent
dielectric      1.0001
dielectric_infi 1.00009
$end

--------------------------------------------------------------

             Standard Nuclear Orientation (Angstroms)
    I     Atom           X                Y                Z
 ----------------------------------------------------------------
    1      C       0.0000000000     0.0000000000     0.0000000000
    2      C       0.0000000000     0.0000000000     1.4050340000
    3      H       0.9485016003     0.0000000000     1.9323193110
    4      C      -1.1782009195     0.0018687289     2.1090349313
    5      C      -2.4305233235     0.0077389336     1.4293166474
    6      C      -2.4539470621     0.0214459795     0.0568899615
    7      H      -3.4091148098     0.0291744738    -0.4613646134
    8      C      -1.2500197825     0.0169757334    -0.6891990177
    9      C      -1.4303099063    -0.0043806494     3.5418000719
   10      C      -0.6404983965    -0.0081459173     4.6638143792
   11      H       0.4408113733    -0.0037454643     4.5997983295
   12      C      -2.8306117836    -0.0081212216     3.6968161291
   13      C      -3.4727650763    -0.0204595237     4.9306667639
   14      C      -3.4857679123    -0.0029305059     2.4472610255
   15      C      -4.8567109581    -0.0135925185     2.4418966284
   16      H      -5.4235901878    -0.0170048042     1.5189404802
   17      C      -1.2684672025    -0.0178293073     5.9295036507
   18      H      -0.6463288501    -0.0205323415     6.8156821193
   19      C      -2.6363848149    -0.0247884179     6.0747142288
   20      H      -3.0733155726    -0.0339228216     7.0657471137
   21      C      -4.8866629665    -0.0291071591     4.8910942112
   22      H      -5.4557039438    -0.0401840269     5.8126506454
   23      C      -5.5399711685    -0.0267330895     3.6804570022
   24      H      -6.6225037304    -0.0377555961     3.6719627883
   25      B      -1.2464823644     0.0531593597    -2.2178057348
   26      C       0.0524445439    -0.0148053576    -3.0143488816
   27      C       0.0607674415    -0.0157078851    -4.4316271566
   28      H      -0.8782710897     0.0205178811    -4.9772344698
   29      C       1.2417351734    -0.0617076521    -5.1259692455
   30      C       2.4771748310    -0.0946680067    -4.4134434427
   31      C       2.4927766611    -0.0760457783    -3.0411414676
   32      H       3.4385033730    -0.0889835119    -2.5085489010
   33      C       1.2949985665    -0.0364962739    -2.3089529509
   34      C       3.5652984412    -0.1389674757    -5.3789993137
   35      C       4.9357118572    -0.1859245343    -5.2986118577
   36      H       5.4511677676    -0.1946248392    -4.3460818281
   37      C       2.9625994541    -0.1325698593    -6.6526852293
   38      C       3.6765757893    -0.1726409472    -7.8476643991
   39      C       1.5560869407    -0.0868791262    -6.5582272815
   40      C       0.8349770605    -0.0817986109    -7.7251064303
   41      H      -0.2476208287    -0.0506438367    -7.7265187126
   42      C       5.6826885689    -0.2253195818    -6.4972859480
   43      H       6.7629091996    -0.2623598572    -6.4324059625
   44      C       5.0884709212    -0.2200838239    -7.7378711087
   45      H       5.7010233716    -0.2530089866    -8.6306720351
   46      C       2.9041922135    -0.1648360567    -9.0322150699
   47      H       3.3922440778    -0.1951196633    -9.9988671986
   48      C       1.5314447999    -0.1205721831    -8.9556556187
   49      H       0.9574623392    -0.1164978798    -9.8736152563
   50      B       1.3315062342     0.0080093526    -0.7735776438
   51      C      -2.6012236871     0.3003298529    -2.9793961526
   52      C      -3.3036724294    -0.7489500182    -3.6409219364
   53      C      -4.5091274298    -0.5005421977    -4.2466197647
   54      H      -5.0614303833    -1.3126693012    -4.7027457763
   55      C      -5.0737637033     0.7948934857    -4.2096727451
   56      N      -6.2970991334     1.0427214765    -4.7620965710
   57      C      -6.7924795948     0.2744008450    -5.8382611007
   58      C      -8.1149886597    -0.1584143650    -5.8274823502
   59      H      -8.7571643974     0.0794551484    -4.9896930470
   60      C      -8.5928769210    -0.9093527271    -6.8864463766
   61      H      -9.6170788651    -1.2561289875    -6.8738458896
   62      C      -7.7622917653    -1.2278714584    -7.9525950602
   63      H      -8.1404531181    -1.8179969837    -8.7761358289
   64      C      -6.4478017987    -0.7836371765    -7.9628850769
   65      H      -5.8005803257    -1.0165794414    -8.7973780556
   66      C      -5.9591798284    -0.0268376814    -6.9126094123
   67      H      -4.9408182365     0.3398184892    -6.9280978550
   68      C      -4.3668038667     1.8439835816    -3.5817850597
   69      H      -4.7708440584     2.8479726123    -3.6049292772
   70      C      -3.1503570367     1.6172863863    -2.9948883201
   71      C      -7.1039939464     2.0895446937    -4.2541938595
   72      C      -7.6633958976     3.0203886779    -5.1227274553
   73      H      -7.4805911551     2.9483305747    -6.1870481297
   74      C      -8.4328403825     4.0500997434    -4.6097723750
   75      H      -8.8568267107     4.7841680848    -5.2813021947
   76      C      -8.6481152215     4.1508399960    -3.2418902105
   77      H      -9.2464306050     4.9605546407    -2.8469281524
   78      C      -8.0956853841     3.2126099227    -2.3818051829
   79      H      -8.2668337427     3.2823772711    -1.3162949129
   80      C      -7.3260656340     2.1775548681    -2.8829200117
   81      H      -6.8997001576     1.4393196190    -2.2158324630
   82      C      -2.7561436015    -2.1480389048    -3.6173803977
   83      H      -1.6762904824    -2.1171285606    -3.7746355967
   84      H      -3.1791565883    -2.7155199409    -4.4499509624
   85      C      -2.3912061750     2.7777364414    -2.4118522713
   86      H      -1.8986056674     2.4683934853    -1.4891729857
   87      H      -3.0968450949     3.5666104629    -2.1396131410
   88      C      -3.0514374939    -2.8694978102    -2.3030894599
   89      H      -2.5952916543    -2.3584904058    -1.4564917031
   90      H      -2.6486900187    -3.8815625520    -2.3305508350
   91      H      -4.1245057621    -2.9394263696    -2.1203610154
   92      C      -1.3492285940     3.3406958568    -3.3789762835
   93      H      -0.5946273660     2.5969823139    -3.6291584948
   94      H      -0.8361351007     4.1888722643    -2.9259709205
   95      H      -1.8101911572     3.6842032681    -4.3060969888
   96      C       2.7070322535     0.1115302347     0.0046493183
   97      C       3.4806305373    -1.0199194185     0.3020065327
   98      C       4.6681130547    -0.8986773435     1.0136548881
   99      H       5.2579148974    -1.7826633987     1.2307720506
  100      C       5.0998269421     0.3381599557     1.4720194187
  101      C       4.3453327053     1.4644413346     1.1771995069
  102      H       4.6744109725     2.4358141798     1.5305358158
  103      C       3.1732674110     1.3623375098     0.4390483870
  104      N       6.2769855208     0.4379290363     2.2478847731
  105      C       7.1746792470     1.4922529397     2.0357578151
  106      C       7.7735643590     2.1526778733     3.1098080555
  107      H       7.5398939220     1.8546534436     4.1235280310
  108      C       8.6624007967     3.1912231835     2.8877410886
  109      H       9.1149977902     3.6890632427     3.7358537129
  110      C       8.9573794269     3.6081741115     1.5986321465
  111      H       9.6455524154     4.4254718110     1.4291987221
  112      C       8.3535303486     2.9625471895     0.5290194188
  113      H       8.5739187655     3.2718946858    -0.4846674028
  114      C       7.4789236462     1.9103897188     0.7389494880
  115      H       7.0214349342     1.4097613694    -0.1042834067
  116      C       6.4389851105    -0.4176322989     3.3485276618
  117      C       5.3539578641    -0.7468086410     4.1595598723
  118      H       4.3777306216    -0.3363517617     3.9373366282
  119      C       5.5217136468    -1.5940569003     5.2420962422
  120      H       4.6676493924    -1.8388035914     5.8603494986
  121      C       6.7712265924    -2.1139492128     5.5461854456
  122      H       6.8999412309    -2.7701982548     6.3964911957
  123      C       7.8538262399    -1.7837026608     4.7435099667
  124      H       8.8339175595    -2.1884934521     4.9613343148
  125      C       7.6919563718    -0.9525764024     3.6484805021
  126      H       8.5400008302    -0.7118138040     3.0202296062
  127      C       3.0269193532    -2.4021755797    -0.0872452293
  128      H       2.4032730811    -2.3605062374    -0.9829266035
  129      H       3.8958337308    -3.0122830044    -0.3495526526
  130      C       2.4475856347     2.6352526156     0.0871453149
  131      H       1.3795324347     2.4431687569    -0.0368819769
  132      H       2.5333742920     3.3475694554     0.9125967257
  133      C       2.2553346577    -3.0818245039     1.0415570800
  134      H       1.3591890734    -2.5158901513     1.2962744219
  135      H       1.9444406954    -4.0881679467     0.7576673850
  136      H       2.8670368393    -3.1607500447     1.9416485231
  137      C       3.0021056668     3.2685430864    -1.1868750130
  138      H       2.9087633834     2.5873404210    -2.0327914968
  139      H       4.0582307087     3.5185909058    -1.0747553029
  140      H       2.4666254073     4.1862154296    -1.4355569540
 ----------------------------------------------------------------
