 Q-Chem 5.1, Q-Chem, Inc., Pleasanton, CA (2018)
 Q-Chem 5.1.1 for Intel X86 EM64T Linux

User input:
--------------------------------------------------------------
$solvent
dielectric      2.03
dielectric_infi 2.02
$end

$rem
threads 8
jobtype	sp
method PBEh-3c
basis def2-mSVP
mem_static	1024
mem_total	14000
sym_ignore	true
cis_n_roots             2
cis_singlets            false
cis_triplets		true
rpa                     false
calc_soc 		true
cis_moments             true
cis_relaxed_density	true
solvent_method		pcm
$end

$pcm
StateSpecific   1
ChargeSeparation Excited
$end

$molecule
read ut1opt_chx.mol
$end

--------------------------------------------------------------

   14   -3084.7943402849      8.45e-09  Convergence criterion met
 Total energy in the final basis set =    -3084.7943402849
 Total job time:  18418.84s(wall), 55763.10s(cpu)
        *  Thank you very much for using Q-Chem.  Have a nice day.  *
 Q-Chem 5.1, Q-Chem, Inc., Pleasanton, CA (2018)
 Q-Chem 5.1.1 for Intel X86 EM64T Linux

User input:
--------------------------------------------------------------
$rem
threads 8
jobtype sp
method PBEh-3c
basis def2-mSVP
mem_static      1024
mem_total       14000
sym_ignore      true
cis_n_roots             6
cis_singlets            true
cis_triplets            true
rpa                     false
calc_soc                true
cis_moments             true
cis_relaxed_density     true
solvent_method          pcm
$end

$molecule
read
$end

$pcm
statespecific           Marcus
$end

$solvent
dielectric      2.03
dielectric_infi 2.02
$end

--------------------------------------------------------------

             Standard Nuclear Orientation (Angstroms)
    I     Atom           X                Y                Z
 ----------------------------------------------------------------
    1      C       0.0000000000     0.0000000000     0.0000000000
    2      C       0.0000000000     0.0000000000     1.4058460000
    3      H       0.9475779418     0.0000000000     1.9349124970
    4      C      -1.1779877503    -0.0017336623     2.1102799016
    5      C      -2.4315102041     0.0021012615     1.4306809688
    6      C      -2.4549289033     0.0175032776     0.0575950309
    7      H      -3.4095873018     0.0248476370    -0.4609598859
    8      C      -1.2517378214     0.0147053161    -0.6892375460
    9      C      -1.4291318077    -0.0134187139     3.5433144958
   10      C      -0.6379898820    -0.0193756717     4.6653887672
   11      H       0.4434403693    -0.0113327859     4.6010719943
   12      C      -2.8297706170    -0.0225458850     3.6986984936
   13      C      -3.4713441489    -0.0429118328     4.9333349401
   14      C      -3.4859641705    -0.0147370104     2.4490113363
   15      C      -4.8577158625    -0.0305753460     2.4443628118
   16      H      -5.4257024206    -0.0316895620     1.5220503510
   17      C      -1.2656468869    -0.0366797188     5.9315019542
   18      H      -0.6429814754    -0.0412026279     6.8174335347
   19      C      -2.6342559877    -0.0493699172     6.0774072762
   20      H      -3.0709001921    -0.0646440372     7.0686045028
   21      C      -5.5398430270    -0.0517044823     3.6839766244
   22      H      -6.6223881478    -0.0665418461     3.6757567934
   23      C      -4.8858419094    -0.0570993460     4.8949937492
   24      H      -5.4541942459    -0.0745326248     5.8169625331
   25      B      -1.2531362944     0.0488456199    -2.2190780126
   26      C       0.0500385100    -0.0150206075    -3.0119849986
   27      C       0.0557212508    -0.0266341339    -4.4279949722
   28      H      -0.8852063646     0.0026971734    -4.9704120662
   29      C       1.2364867244    -0.0720005627    -5.1252289698
   30      C       2.4737292074    -0.0965150527    -4.4146583819
   31      C       2.4919042968    -0.0736292863    -3.0428996594
   32      H       3.4395838304    -0.0835996619    -2.5135039617
   33      C       1.2940088547    -0.0355382819    -2.3082852294
   34      C       3.5610635812    -0.1399402298    -5.3828299142
   35      C       4.9322155174    -0.1794997479    -5.3049241950
   36      H       5.4501550062    -0.1810127974    -4.3535272606
   37      C       2.9552093244    -0.1420240637    -6.6551974008
   38      C       3.6669742833    -0.1840068440    -7.8519963971
   39      C       1.5480374464    -0.1021187052    -6.5578274861
   40      C       0.8239104470    -0.1053498006    -7.7237145174
   41      H      -0.2588538406    -0.0789546228    -7.7234394707
   42      C       5.6769917452    -0.2208489974    -6.5057027859
   43      H       6.7576287264    -0.2522139884    -6.4428947493
   44      C       5.0798001030    -0.2240799321    -7.7454553419
   45      H       5.6902930925    -0.2579004940    -8.6397619830
   46      C       2.8919805152    -0.1849094411    -9.0356493851
   47      H       3.3782665572    -0.2171539787   -10.0032284431
   48      C       1.5186263418    -0.1466465960    -8.9558435816
   49      H       0.9422746803    -0.1491496688    -9.8724011476
   50      B       1.3312017212     0.0054269651    -0.7734742469
   51      C      -2.6212253682     0.2606995855    -2.9764234129
   52      C      -3.3265053801    -0.8152791572    -3.5809711648
   53      C      -4.5515467335    -0.5999580023    -4.1647238922
   54      H      -5.1072544363    -1.4339048219    -4.5751667842
   55      C      -5.1244836755     0.6908247298    -4.1630961223
   56      N      -6.3644100558     0.9098525487    -4.6921301340
   57      C      -6.8782299510     0.1068661881    -5.7314590148
   58      C      -8.2036650080    -0.3179992614    -5.6823864939
   59      H      -8.8305075475    -0.0510850433    -4.8416221542
   60      C      -8.7014984139    -1.1032077853    -6.7063455257
   61      H      -9.7264049852    -1.4456439502    -6.6647268288
   62      C      -7.8891605616    -1.4606805717    -7.7752740947
   63      H      -8.2839834909    -2.0758078512    -8.5724545421
   64      C      -6.5722819088    -1.0239009225    -7.8234978709
   65      H      -5.9412057610    -1.2870539333    -8.6613790047
   66      C      -6.0618223727    -0.2355329738    -6.8076381422
   67      H      -5.0432393478     0.1277445271    -6.8548511768
   68      C      -4.4105686359     1.7679343596    -3.5958759339
   69      H      -4.8208194879     2.7685224514    -3.6471731969
   70      C      -3.1783866291     1.5684694246    -3.0282306379
   71      C      -7.1664244412     1.9639437537    -4.1940517246
   72      C      -7.7633879748     2.8578436413    -5.0775497199
   73      H      -7.6138689149     2.7515413449    -6.1441940608
   74      C      -8.5242263296     3.8986250541    -4.5746349509
   75      H      -8.9761214450     4.6063293249    -5.2562321501
   76      C      -8.6964242703     4.0433361738    -3.2038019268
   77      H      -9.2899988887     4.8608131240    -2.8174359899
   78      C      -8.1082646607     3.1397086289    -2.3294197112
   79      H      -8.2479390625     3.2437748677    -1.2620826701
   80      C      -7.3431884565     2.0958999783    -2.8190232411
   81      H      -6.8917756380     1.3828249829    -2.1411058986
   82      C      -2.7666063643    -2.2098790701    -3.5296519833
   83      H      -1.6868613700    -2.1740412229    -3.6863878075
   84      H      -3.1822936409    -2.7956193406    -4.3529936827
   85      C      -2.4154822485     2.7552466954    -2.5038510002
   86      H      -1.8758191355     2.4750326744    -1.5980335854
   87      H      -3.1213382009     3.5380216412    -2.2159055262
   88      C      -3.0590677811    -2.9130581333    -2.2053802571
   89      H      -2.6081444449    -2.3854293997    -1.3661249150
   90      H      -2.6501483335    -3.9231597238    -2.2157073778
   91      H      -4.1321762626    -2.9863393033    -2.0233733794
   92      C      -1.4291964222     3.3143494694    -3.5286757541
   93      H      -0.6744792064     2.5769759112    -3.7977979355
   94      H      -0.9101126885     4.1808237820    -3.1189403970
   95      H      -1.9390712160     3.6286261820    -4.4404986631
   96      C       2.7064832462     0.0954260566     0.0094801191
   97      C       3.4649935326    -1.0452579835     0.3118051214
   98      C       4.6463202066    -0.9398139815     1.0371284048
   99      H       5.2224568999    -1.8320984058     1.2580723717
  100      C       5.0866577456     0.2904720110     1.5058158049
  101      C       4.3494869363     1.4265222230     1.2031610210
  102      H       4.6843930422     2.3940279392     1.5618278663
  103      C       3.1846153888     1.3396135855     0.4507255333
  104      N       6.2537379711     0.3732206957     2.2986146685
  105      C       7.1580625872     1.4282427647     2.1142149565
  106      C       7.7156687978     2.0942584909     3.2069903303
  107      H       7.4460723359     1.8004559353     4.2132246319
  108      C       8.6101155580     3.1344511885     3.0131420236
  109      H       9.0304813595     3.6373708679     3.8748828099
  110      C       8.9512607225     3.5458239159     1.7330444840
  111      H       9.6434985591     4.3641057136     1.5851888697
  112      C       8.3894442904     2.8933189519     0.6441401307
  113      H       8.6470673748     3.1980547907    -0.3622341412
  114      C       7.5093005891     1.8398477522     0.8272583542
  115      H       7.0858086848     1.3338989862    -0.0307283311
  116      C       6.3952180026    -0.4905450584     3.3962711699
  117      C       5.2977410436    -0.8220208948     4.1900298991
  118      H       4.3250840778    -0.4073679943     3.9594551127
  119      C       5.4478833394    -1.6782114618     5.2689309243
  120      H       4.5843625319    -1.9247642359     5.8733529455
  121      C       6.6920508411    -2.2042956350     5.5864205889
  122      H       6.8070601905    -2.8675393431     6.4334504879
  123      C       7.7872259023    -1.8708698738     4.8013824519
  124      H       8.7631630517    -2.2801068950     5.0298711693
  125      C       7.6428576432    -1.0307642531     3.7100878114
  126      H       8.5010859562    -0.7889509998     3.0959754313
  127      C       3.0023214239    -2.4220842845    -0.0865204210
  128      H       2.3760138539    -2.3700846623    -0.9796975199
  129      H       3.8670791913    -3.0352321188    -0.3555185495
  130      C       2.4795982315     2.6226911582     0.0931848696
  131      H       1.4117000357     2.4436775644    -0.0499047168
  132      H       2.5610474629     3.3312505710     0.9222726006
  133      C       2.2298927072    -3.1064028233     1.0390614531
  134      H       1.3384829806    -2.5363492651     1.3016542147
  135      H       1.9110862050    -4.1079447560     0.7469442918
  136      H       2.8441042285    -3.1975219814     1.9364555048
  137      C       3.0618429261     3.2539584938    -1.1695646064
  138      H       2.9763347786     2.5752795737    -2.0184421921
  139      H       2.5385411172     4.1766518531    -1.4251120279
  140      H       4.1183534203     3.4939363608    -1.0388509695
 ----------------------------------------------------------------

   14   -3084.7942950771      8.46e-09  Convergence criterion met
 Total energy in the final basis set =    -3084.7942950771

         TDDFT/TDA Excitation Energies
 ---------------------------------------------------

 Excited state   1: excitation energy (eV) =    2.0902
 Total energy for state  1:                 -3084.71748070 au
    Multiplicity: Triplet
    Trans. Mom.:  0.0000 X   0.0000 Y   0.0000 Z
    Strength   :     0.0000000000
    D(270) --> V(  1) amplitude =  0.9489

 Excited state   2: excitation energy (eV) =    2.1419
 Total energy for state  2:                 -3084.71558084 au
    Multiplicity: Singlet
    Trans. Mom.:  0.8045 X  -0.1106 Y   0.2427 Z
    Strength   :     0.0376991990
    D(270) --> V(  1) amplitude =  0.9727

 Excited state   3: excitation energy (eV) =    2.2138
 Total energy for state  3:                 -3084.71293858 au
    Multiplicity: Triplet
    Trans. Mom.:  0.0000 X   0.0000 Y   0.0000 Z
    Strength   :     0.0000000000
    D(267) --> V(  1) amplitude =  0.7315
    D(268) --> V(  1) amplitude =  0.5361

 Excited state   4: excitation energy (eV) =    2.4319
 Total energy for state  4:                 -3084.70492348 au
    Multiplicity: Triplet
    Trans. Mom.:  0.0000 X   0.0000 Y   0.0000 Z
    Strength   :     0.0000000000
    D(266) --> V(  2) amplitude =  0.4636
    D(267) --> V(  1) amplitude = -0.4832
    D(268) --> V(  1) amplitude =  0.6261

 Excited state   5: excitation energy (eV) =    2.4760
 Total energy for state  5:                 -3084.70330367 au
    Multiplicity: Triplet
    Trans. Mom.:  0.0000 X   0.0000 Y   0.0000 Z
    Strength   :     0.0000000000
    D(266) --> V(  1) amplitude =  0.3712
    D(268) --> V(  2) amplitude =  0.2318
    D(269) --> V(  1) amplitude =  0.8221

 Excited state   6: excitation energy (eV) =    2.4944
 Total energy for state  6:                 -3084.70262778 au
    Multiplicity: Triplet
    Trans. Mom.:  0.0000 X   0.0000 Y   0.0000 Z
    Strength   :     0.0000000000
    D(266) --> V(  1) amplitude =  0.6372
    D(268) --> V(  2) amplitude =  0.4421
    D(269) --> V(  1) amplitude = -0.4673

 Excited state   7: excitation energy (eV) =    2.4996
 Total energy for state  7:                 -3084.70243605 au
    Multiplicity: Singlet
    Trans. Mom.:  0.3033 X   0.0209 Y   0.2590 Z
    Strength   :     0.0097689568
    D(269) --> V(  1) amplitude =  0.9728

 Excited state   8: excitation energy (eV) =    2.7287
 Total energy for state  8:                 -3084.69401548 au
    Multiplicity: Triplet
    Trans. Mom.:  0.0000 X   0.0000 Y   0.0000 Z
    Strength   :     0.0000000000
    D(261) --> V(  1) amplitude =  0.2439
    D(262) --> V(  1) amplitude =  0.3671
    D(263) --> V(  1) amplitude = -0.5463
    D(267) --> V(  2) amplitude =  0.5115
    D(268) --> V(  2) amplitude =  0.2212

 Excited state   9: excitation energy (eV) =    2.8771
 Total energy for state  9:                 -3084.68856291 au
    Multiplicity: Singlet
    Trans. Mom.:  0.1855 X  -0.0127 Y  -0.4101 Z
    Strength   :     0.0142932164
    D(267) --> V(  1) amplitude =  0.7897
    D(268) --> V(  1) amplitude =  0.5606

 Excited state  10: excitation energy (eV) =    3.1281
 Total energy for state 10:                 -3084.67933974 au
    Multiplicity: Singlet
    Trans. Mom.:  1.9287 X  -0.0266 Y  -3.4926 Z
    Strength   :     1.2199558142
    D(267) --> V(  1) amplitude = -0.5538
    D(268) --> V(  1) amplitude =  0.7793

 Excited state  11: excitation energy (eV) =    3.3895
 Total energy for state 11:                 -3084.66973223 au
    Multiplicity: Singlet
    Trans. Mom.: -0.2813 X   0.0195 Y   0.0142 Z
    Strength   :     0.0066207183
    D(270) --> V(  2) amplitude =  0.9710

 Excited state  12: excitation energy (eV) =    3.4269
 Total energy for state 12:                 -3084.66835855 au
    Multiplicity: Singlet
    Trans. Mom.: -0.1626 X   0.1310 Y  -0.0076 Z
    Strength   :     0.0036649093
    D(266) --> V(  1) amplitude =  0.9147

 ---------------------------------------------------

                    Orbital Energies (a.u.)
 --------------------------------------------------------------

 Alpha MOs
 -- Occupied --
-14.670 -14.670 -10.492 -10.491 -10.491 -10.491 -10.486 -10.484
-10.466 -10.466 -10.466 -10.466 -10.466 -10.465 -10.465 -10.465
-10.464 -10.464 -10.464 -10.463 -10.462 -10.462 -10.462 -10.462
-10.462 -10.461 -10.459 -10.459 -10.459 -10.459 -10.456 -10.456
-10.454 -10.453 -10.451 -10.451 -10.450 -10.450 -10.449 -10.449
-10.449 -10.449 -10.448 -10.448 -10.448 -10.448 -10.447 -10.447
-10.447 -10.447 -10.447 -10.446 -10.446 -10.445 -10.445 -10.444
-10.444 -10.443 -10.443 -10.441 -10.436 -10.436 -10.436 -10.436
-10.436 -10.435 -10.434 -10.434 -10.431 -10.430 -10.430 -10.429
-10.425 -10.420 -10.419 -10.418 -10.417 -10.417  -6.949  -6.942
 -1.086  -1.079  -1.016  -1.016  -0.964  -0.964  -0.961  -0.960
 -0.959  -0.958  -0.940  -0.939  -0.934  -0.934  -0.909  -0.900
 -0.890  -0.887  -0.868  -0.865  -0.856  -0.856  -0.853  -0.851
 -0.847  -0.847  -0.843  -0.841  -0.840  -0.837  -0.826  -0.822
 -0.820  -0.814  -0.812  -0.804  -0.800  -0.800  -0.792  -0.785
 -0.736  -0.732  -0.727  -0.721  -0.717  -0.716  -0.712  -0.711
 -0.699  -0.699  -0.698  -0.696  -0.689  -0.685  -0.682  -0.680
 -0.680  -0.675  -0.669  -0.667  -0.648  -0.646  -0.638  -0.636
 -0.630  -0.629  -0.606  -0.604  -0.597  -0.594  -0.592  -0.589
 -0.586  -0.585  -0.583  -0.576  -0.576  -0.562  -0.561  -0.555
 -0.554  -0.544  -0.544  -0.542  -0.541  -0.537  -0.528  -0.526
 -0.524  -0.522  -0.517  -0.514  -0.510  -0.508  -0.504  -0.502
 -0.502  -0.499  -0.497  -0.497  -0.496  -0.495  -0.494  -0.490
 -0.489  -0.488  -0.486  -0.486  -0.486  -0.485  -0.484  -0.483
 -0.483  -0.481  -0.478  -0.477  -0.476  -0.468  -0.466  -0.463
 -0.462  -0.455  -0.455  -0.450  -0.442  -0.441  -0.436  -0.436
 -0.435  -0.434  -0.432  -0.429  -0.428  -0.427  -0.427  -0.426
 -0.421  -0.421  -0.420  -0.416  -0.413  -0.412  -0.409  -0.406
 -0.404  -0.403  -0.400  -0.399  -0.398  -0.398  -0.397  -0.396
 -0.396  -0.394  -0.393  -0.392  -0.392  -0.386  -0.385  -0.384
 -0.380  -0.373  -0.368  -0.363  -0.358  -0.356  -0.352  -0.350
 -0.345  -0.336  -0.320  -0.315  -0.308  -0.304  -0.301  -0.300
 -0.298  -0.297  -0.296  -0.295  -0.287  -0.283  -0.282  -0.275
 -0.274  -0.262  -0.258  -0.255  -0.222  -0.214

          Ground-State Mulliken Net Atomic Charges

     Atom                 Charge (a.u.)
  ----------------------------------------
      1 C                    -0.150600
      2 C                    -0.393067
      3 H                     0.241874
      4 C                     0.082860
      5 C                     0.108945
      6 C                    -0.397012
      7 H                     0.243393
      8 C                    -0.149685
      9 C                     0.184295
     10 C                    -0.382000
     11 H                     0.237367
     12 C                    -0.068294
     13 C                     0.234396
     14 C                     0.189336
     15 C                    -0.392433
     16 H                     0.237805
     17 C                    -0.222419
     18 H                     0.244514
     19 C                    -0.339748
     20 H                     0.240611
     21 C                    -0.219166
     22 H                     0.244009
     23 C                    -0.345056
     24 H                     0.240980
     25 B                     0.627492
     26 C                    -0.141958
     27 C                    -0.397793
     28 H                     0.243670
     29 C                     0.105505
     30 C                     0.084585
     31 C                    -0.397075
     32 H                     0.241288
     33 C                    -0.146065
     34 C                     0.186810
     35 C                    -0.383539
     36 H                     0.238721
     37 C                    -0.068676
     38 C                     0.232430
     39 C                     0.190001
     40 C                    -0.392318
     41 H                     0.238279
     42 C                    -0.222217
     43 H                     0.244836
     44 C                    -0.339110
     45 H                     0.240942
     46 C                    -0.343657
     47 H                     0.241068
     48 C                    -0.219244
     49 H                     0.244275
     50 B                     0.649101
     51 C                    -0.244436
     52 C                     0.097362
     53 C                    -0.390161
     54 H                     0.247135
     55 C                     0.323714
     56 N                    -0.658496
     57 C                     0.280824
     58 C                    -0.284025
     59 H                     0.254726
     60 C                    -0.232685
     61 H                     0.238281
     62 C                    -0.251796
     63 H                     0.234146
     64 C                    -0.233306
     65 H                     0.237410
     66 C                    -0.278414
     67 H                     0.259031
     68 C                    -0.394458
     69 H                     0.247752
     70 C                     0.082362
     71 C                     0.252378
     72 C                    -0.270848
     73 H                     0.254095
     74 C                    -0.235293
     75 H                     0.239253
     76 C                    -0.247781
     77 H                     0.235566
     78 C                    -0.234319
     79 H                     0.238466
     80 C                    -0.263376
     81 H                     0.256294
     82 C                    -0.547868
     83 H                     0.248074
     84 H                     0.235560
     85 C                    -0.554999
     86 H                     0.256620
     87 H                     0.237756
     88 C                    -0.656994
     89 H                     0.243517
     90 H                     0.224157
     91 H                     0.220367
     92 C                    -0.653654
     93 H                     0.244417
     94 H                     0.221696
     95 H                     0.220021
     96 C                    -0.226991
     97 C                     0.068996
     98 C                    -0.348619
     99 H                     0.239489
    100 C                     0.295927
    101 C                    -0.356064
    102 H                     0.241839
    103 C                     0.058255
    104 N                    -0.671798
    105 C                     0.301205
    106 C                    -0.297322
    107 H                     0.255201
    108 C                    -0.229135
    109 H                     0.236408
    110 C                    -0.256699
    111 H                     0.233410
    112 C                    -0.229106
    113 H                     0.235724
    114 C                    -0.289810
    115 H                     0.251571
    116 C                     0.288902
    117 C                    -0.287445
    118 H                     0.250608
    119 C                    -0.230530
    120 H                     0.235527
    121 C                    -0.253915
    122 H                     0.234329
    123 C                    -0.230880
    124 H                     0.237093
    125 C                    -0.283253
    126 H                     0.254547
    127 C                    -0.549057
    128 H                     0.251112
    129 H                     0.238123
    130 C                    -0.552523
    131 H                     0.256193
    132 H                     0.239182
    133 C                    -0.652370
    134 H                     0.236941
    135 H                     0.224762
    136 H                     0.221464
    137 C                    -0.650122
    138 H                     0.237632
    139 H                     0.223792
    140 H                     0.221078
  ----------------------------------------
  Sum of atomic charges =    -0.000000

                    Cartesian Multipole Moments
 -----------------------------------------------------------------
    Charge (ESU x 10^10)
                -0.0000
    Dipole Moment (Debye)
         X      -1.0528      Y       0.0813      Z      -0.3170
       Tot       1.1025
    Quadrupole Moments (Debye-Ang)
        XX    -409.5879     XY      -3.3158     YY    -459.7851
        XZ     -10.5273     YZ       1.0677     ZZ    -390.3922

 Total job time:  38108.54s(wall), 108863.47s(cpu)
        *  Thank you very much for using Q-Chem.  Have a nice day.  *
