 Q-Chem 5.1, Q-Chem, Inc., Pleasanton, CA (2018)
 Q-Chem 5.1.1 for Intel X86 EM64T Linux

User input:
--------------------------------------------------------------
$solvent
dielectric      8.93
dielectric_infi 2.03
$end

$rem
threads 8
jobtype	sp
method PBEh-3c
basis def2-mSVP
mem_static	1024
mem_total	14000
sym_ignore	true
cis_n_roots             2
cis_singlets            false
cis_triplets		true
rpa                     false
calc_soc 		true
cis_moments             true
cis_relaxed_density	true
solvent_method		pcm
$end

$pcm
StateSpecific   1
ChargeSeparation Excited
$end

$molecule
read ut1opt_dcm.mol
$end

--------------------------------------------------------------

   14   -3084.8123483724      8.00e-09  Convergence criterion met
 Total energy in the final basis set =    -3084.8123483724
 Total job time:  18537.27s(wall), 56362.86s(cpu)
        *  Thank you very much for using Q-Chem.  Have a nice day.  *
 Q-Chem 5.1, Q-Chem, Inc., Pleasanton, CA (2018)
 Q-Chem 5.1.1 for Intel X86 EM64T Linux

User input:
--------------------------------------------------------------
$rem
threads 8
jobtype sp
method PBEh-3c
basis def2-mSVP
mem_static      1024
mem_total       14000
sym_ignore      true
cis_n_roots             6
cis_singlets            true
cis_triplets            true
rpa                     false
calc_soc                true
cis_moments             true
cis_relaxed_density     true
solvent_method          pcm
$end

$molecule
read
$end

$pcm
statespecific           Marcus
$end

$solvent
dielectric      8.93
dielectric_infi 2.03
$end

--------------------------------------------------------------

             Standard Nuclear Orientation (Angstroms)
    I     Atom           X                Y                Z
 ----------------------------------------------------------------
    1      C       0.0000000000     0.0000000000     0.0000000000
    2      C       0.0000000000     0.0000000000     1.4071950000
    3      H       0.9462406962     0.0000000000     1.9389516373
    4      C      -1.1781985319    -0.0025899699     2.1117297298
    5      C      -2.4328061719     0.0053734396     1.4314448405
    6      C      -2.4563455428     0.0188290784     0.0570252569
    7      H      -3.4105435363     0.0317789016    -0.4614608944
    8      C      -1.2534985580     0.0106462403    -0.6899010875
    9      C      -1.4293499529    -0.0149299781     3.5455118890
   10      C      -0.6376311865    -0.0259517083     4.6683231338
   11      H       0.4441011023    -0.0239575452     4.6051707272
   12      C      -2.8306400668    -0.0176723666     3.6995797485
   13      C      -3.4731153092    -0.0345659116     4.9346530443
   14      C      -3.4872671973    -0.0056993337     2.4494630942
   15      C      -4.8600619524    -0.0120746699     2.4436185103
   16      H      -5.4283124578    -0.0065679874     1.5215208307
   17      C      -1.2665345852    -0.0407497759     5.9345886948
   18      H      -0.6444091153    -0.0492842471     6.8208968501
   19      C      -2.6363088995    -0.0459759665     6.0796127219
   20      H      -3.0740161757    -0.0590135177     7.0704363295
   21      C      -5.5422057473    -0.0291824498     3.6841480819
   22      H      -6.6247518009    -0.0354481900     3.6748635139
   23      C      -4.8885138160    -0.0399391421     4.8963076716
   24      H      -5.4569447086    -0.0537251777     5.8183003504
   25      B      -1.2636241943     0.0394642920    -2.2221046514
   26      C       0.0459882352    -0.0307085992    -3.0102302611
   27      C       0.0497483503    -0.0627042533    -4.4254286249
   28      H      -0.8918339751    -0.0437071759    -4.9663287582
   29      C       1.2308477355    -0.1150086324    -5.1243280068
   30      C       2.4702311931    -0.1248866234    -4.4149052224
   31      C       2.4902819962    -0.0838495958    -3.0434995715
   32      H       3.4401933675    -0.0838978554    -2.5176919314
   33      C       1.2919605151    -0.0410822437    -2.3070673387
   34      C       3.5570364768    -0.1757861734    -5.3846072350
   35      C       4.9293425598    -0.2066097560    -5.3083283111
   36      H       5.4498060744    -0.1924473508    -4.3581975014
   37      C       2.9479422797    -0.1974245154    -6.6557124114
   38      C       3.6581542875    -0.2510322354    -7.8537817355
   39      C       1.5400232913    -0.1630418518    -6.5567565906
   40      C       0.8128447333    -0.1850820525    -7.7216693792
   41      H      -0.2700424819    -0.1641125659    -7.7203755201
   42      C       5.6722582565    -0.2594548126    -6.5106530302
   43      H       6.7532084184    -0.2837225854    -6.4496691635
   44      C       5.0719744935    -0.2819860794    -7.7497408319
   45      H       5.6804337747    -0.3238592036    -8.6451404647
   46      C       2.8810713864    -0.2710629115    -9.0368893262
   47      H       3.3661654863    -0.3130749967   -10.0047041803
   48      C       1.5068094186    -0.2388607966    -8.9546505588
   49      H       0.9283605427    -0.2561176290    -9.8696592739
   50      B       1.3306822310     0.0139595429    -0.7730688266
   51      C      -2.6334318252     0.2366403007    -2.9850759559
   52      C      -3.3370575673    -0.8500472538    -3.5581207730
   53      C      -4.5543041532    -0.6461057575    -4.1700536145
   54      H      -5.1104233466    -1.4892195723    -4.5615910997
   55      C      -5.1121121873     0.6457057003    -4.2199483319
   56      N      -6.3453735867     0.8587470990    -4.7816017521
   57      C      -6.8157152026     0.0635521754    -5.8408165039
   58      C      -8.1476291231    -0.3503071258    -5.8529899929
   59      H      -8.8108611046    -0.0819843715    -5.0411634597
   60      C      -8.6014132287    -1.1350453676    -6.8968541187
   61      H      -9.6292045245    -1.4712134188    -6.9024910266
   62      C      -7.7407860486    -1.5011691226    -7.9257804604
   63      H      -8.1023905477    -2.1150168003    -8.7396772969
   64      C      -6.4183795893    -1.0749537107    -7.9133040620
   65      H      -5.7516989141    -1.3432961332    -8.7214581756
   66      C      -5.9492231156    -0.2899105800    -6.8760461233
   67      H      -4.9283155531     0.0694659548    -6.8796290738
   68      C      -4.4041358256     1.7332478631    -3.6749076724
   69      H      -4.8053719870     2.7351095099    -3.7642936131
   70      C      -3.1804606140     1.5401098127    -3.0789332637
   71      C      -7.1642890965     1.8980420573    -4.2915015157
   72      C      -7.7738313709     2.7780152111    -5.1832371888
   73      H      -7.6163961963     2.6727664266    -6.2488545938
   74      C      -8.5506841304     3.8095108946    -4.6869974257
   75      H      -9.0106686311     4.5077190760    -5.3729867197
   76      C      -8.7288011107     3.9572963391    -3.3162481391
   77      H      -9.3374675560     4.7664806113    -2.9355981441
   78      C      -8.1281439475     3.0676023002    -2.4344734669
   79      H      -8.2754210642     3.1733779197    -1.3682926242
   80      C      -7.3432603433     2.0352089411    -2.9155713908
   81      H      -6.8867647429     1.3301863548    -2.2327489926
   82      C      -2.7974618229    -2.2501281260    -3.4461678471
   83      H      -1.7074749939    -2.2286774036    -3.5037023615
   84      H      -3.1419889372    -2.8412196826    -4.2977336951
   85      C      -2.4208240427     2.7406541043    -2.5778579661
   86      H      -1.8590309223     2.4757106201    -1.6805194370
   87      H      -3.1286081367     3.5185209890    -2.2823250783
   88      C      -3.2204390969    -2.9339680110    -2.1478762971
   89      H      -2.8535445858    -2.3912213914    -1.2770058377
   90      H      -2.8188065216    -3.9462597851    -2.1003432857
   91      H      -4.3067320504    -2.9986323792    -2.0723451492
   92      C      -1.4626670396     3.3032060684    -3.6265710456
   93      H      -0.7124121065     2.5671362349    -3.9134025854
   94      H      -0.9383251228     4.1749859701    -3.2342755325
   95      H      -1.9976822531     3.6100429421    -4.5263176441
   96      C       2.7064862533     0.1325587798     0.0078792306
   97      C       3.4775840391    -0.9928435548     0.3365718982
   98      C       4.6582728657    -0.8589798626     1.0594106601
   99      H       5.2430540323    -1.7409859871     1.2990284091
  100      C       5.0871299297     0.3864673329     1.4995116698
  101      C       4.3384749630     1.5079430989     1.1694546632
  102      H       4.6616832859     2.4876517690     1.5052599902
  103      C       3.1735597372     1.3915178917     0.4199299091
  104      N       6.2518546426     0.4969720694     2.2913805397
  105      C       7.1375661904     1.5677007497     2.0991549360
  106      C       7.6603816072     2.2701371790     3.1865093036
  107      H       7.3786986813     1.9957225659     4.1950258577
  108      C       8.5373035140     3.3248073440     2.9849166714
  109      H       8.9309592241     3.8562723629     3.8422060054
  110      C       8.8946539317     3.7130618683     1.7013179564
  111      H       9.5730907366     4.5418028095     1.5471142521
  112      C       8.3680595199     3.0229142890     0.6170252643
  113      H       8.6399984952     3.3084422446    -0.3912813120
  114      C       7.5057508719     1.9553638323     0.8091534053
  115      H       7.1128959334     1.4198040845    -0.0457534195
  116      C       6.3910202337    -0.3326054366     3.4173641323
  117      C       5.2939491901    -0.6331161030     4.2240032577
  118      H       4.3215029020    -0.2220864747     3.9849412215
  119      C       5.4441223442    -1.4528968314     5.3319874636
  120      H       4.5817293989    -1.6753175526     5.9473860643
  121      C       6.6885275947    -1.9713147536     5.6638387854
  122      H       6.8040588072    -2.6052556606     6.5330934476
  123      C       7.7836961630    -1.6679276964     4.8653020818
  124      H       8.7591644360    -2.0713676461     5.1059989449
  125      C       7.6384971413    -0.8644911542     3.7459195660
  126      H       8.4967828419    -0.6458453615     3.1228928647
  127      C       3.0328013784    -2.3839413243    -0.0321326178
  128      H       2.3813241492    -2.3548541055    -0.9082339569
  129      H       3.9019784169    -2.9836723698    -0.3165237892
  130      C       2.4564788220     2.6601814660     0.0350187784
  131      H       1.3925597849     2.4655957509    -0.1175933602
  132      H       2.5208064665     3.3833346458     0.8528061334
  133      C       2.3052629754    -3.0713207988     1.1212611825
  134      H       1.4132767531    -2.5131093715     1.4072382805
  135      H       1.9946551348    -4.0802173724     0.8463386868
  136      H       2.9473807292    -3.1458439040     2.0004959017
  137      C       3.0437543188     3.2800476531    -1.2312365740
  138      H       2.9816892312     2.5849239181    -2.0691530921
  139      H       2.5074115850     4.1886130814    -1.5089489294
  140      H       4.0941103412     3.5414382973    -1.0916319843
 ----------------------------------------------------------------

   14   -3084.8042938937      8.87e-09  Convergence criterion met
 Total energy in the final basis set =    -3084.8042938937

         TDDFT/TDA Excitation Energies
 ---------------------------------------------------

 Excited state   1: excitation energy (eV) =    1.6633
 Total energy for state  1:                 -3084.74317008 au
    Multiplicity: Triplet
    Trans. Mom.:  0.0000 X   0.0000 Y   0.0000 Z
    Strength   :     0.0000000000
    D(270) --> V(  1) amplitude =  0.9720

 Excited state   2: excitation energy (eV) =    1.7043
 Total energy for state  2:                 -3084.74166377 au
    Multiplicity: Singlet
    Trans. Mom.: -0.8325 X   0.1092 Y  -0.3184 Z
    Strength   :     0.0336672366
    D(270) --> V(  1) amplitude =  0.9777

 Excited state   3: excitation energy (eV) =    2.2388
 Total energy for state  3:                 -3084.72201967 au
    Multiplicity: Triplet
    Trans. Mom.:  0.0000 X   0.0000 Y   0.0000 Z
    Strength   :     0.0000000000
    D(260) --> V(  2) amplitude = -0.2306
    D(267) --> V(  1) amplitude =  0.8523
    D(268) --> V(  1) amplitude =  0.3256

 Excited state   4: excitation energy (eV) =    2.4279
 Total energy for state  4:                 -3084.71507106 au
    Multiplicity: Triplet
    Trans. Mom.:  0.0000 X   0.0000 Y   0.0000 Z
    Strength   :     0.0000000000
    D(265) --> V(  2) amplitude =  0.4324
    D(267) --> V(  1) amplitude = -0.2807
    D(268) --> V(  1) amplitude =  0.7228

 Excited state   5: excitation energy (eV) =    2.4838
 Total energy for state  5:                 -3084.71301711 au
    Multiplicity: Triplet
    Trans. Mom.:  0.0000 X   0.0000 Y   0.0000 Z
    Strength   :     0.0000000000
    D(264) --> V(  1) amplitude = -0.2329
    D(265) --> V(  1) amplitude =  0.6420
    D(268) --> V(  2) amplitude =  0.4807
    D(269) --> V(  1) amplitude = -0.3719

 Excited state   6: excitation energy (eV) =    2.5059
 Total energy for state  6:                 -3084.71220507 au
    Multiplicity: Triplet
    Trans. Mom.:  0.0000 X   0.0000 Y   0.0000 Z
    Strength   :     0.0000000000
    D(265) --> V(  1) amplitude =  0.2563
    D(268) --> V(  2) amplitude =  0.2135
    D(269) --> V(  1) amplitude =  0.8760

 Excited state   7: excitation energy (eV) =    2.5205
 Total energy for state  7:                 -3084.71166651 au
    Multiplicity: Singlet
    Trans. Mom.: -0.2308 X  -0.0288 Y  -0.2465 Z
    Strength   :     0.0070917741
    D(269) --> V(  1) amplitude =  0.9729

 Excited state   8: excitation energy (eV) =    2.7445
 Total energy for state  8:                 -3084.70343548 au
    Multiplicity: Triplet
    Trans. Mom.:  0.0000 X   0.0000 Y   0.0000 Z
    Strength   :     0.0000000000
    D(260) --> V(  1) amplitude = -0.6655
    D(267) --> V(  2) amplitude =  0.5435

 Excited state   9: excitation energy (eV) =    2.9037
 Total energy for state  9:                 -3084.69758440 au
    Multiplicity: Singlet
    Trans. Mom.: -0.2670 X   0.0048 Y   0.3661 Z
    Strength   :     0.0146064451
    D(267) --> V(  1) amplitude =  0.7874
    D(268) --> V(  1) amplitude =  0.2942
    D(270) --> V(  2) amplitude =  0.4838

 Excited state  10: excitation energy (eV) =    2.9187
 Total energy for state 10:                 -3084.69703512 au
    Multiplicity: Singlet
    Trans. Mom.: -0.2459 X  -0.0066 Y   0.1255 Z
    Strength   :     0.0054520461
    D(267) --> V(  1) amplitude = -0.4507
    D(270) --> V(  2) amplitude =  0.8686

 Excited state  11: excitation energy (eV) =    3.1196
 Total energy for state 11:                 -3084.68965209 au
    Multiplicity: Singlet
    Trans. Mom.: -1.9157 X   0.0493 Y   3.4494 Z
    Strength   :     1.1900545948
    D(267) --> V(  1) amplitude = -0.3124
    D(268) --> V(  1) amplitude =  0.9015

 Excited state  12: excitation energy (eV) =    3.2777
 Total energy for state 12:                 -3084.68384095 au
    Multiplicity: Singlet
    Trans. Mom.:  0.1910 X  -0.0606 Y   0.4203 Z
    Strength   :     0.0174081437
    D(264) --> V(  1) amplitude = -0.2385
    D(265) --> V(  1) amplitude = -0.2476
    D(266) --> V(  1) amplitude =  0.2691
    D(270) --> V(  3) amplitude =  0.7398
    D(270) --> V(  4) amplitude =  0.4175

 ---------------------------------------------------

                    Orbital Energies (a.u.)
 --------------------------------------------------------------

 Alpha MOs
 -- Occupied --
-14.679 -14.658 -10.500 -10.499 -10.495 -10.478 -10.478 -10.478
-10.476 -10.476 -10.475 -10.474 -10.474 -10.474 -10.474 -10.474
-10.473 -10.473 -10.472 -10.472 -10.472 -10.471 -10.470 -10.470
-10.469 -10.469 -10.467 -10.467 -10.465 -10.465 -10.465 -10.464
-10.464 -10.464 -10.463 -10.463 -10.459 -10.458 -10.456 -10.455
-10.455 -10.455 -10.454 -10.453 -10.452 -10.452 -10.450 -10.449
-10.447 -10.447 -10.446 -10.446 -10.446 -10.446 -10.445 -10.444
-10.443 -10.443 -10.436 -10.436 -10.435 -10.434 -10.434 -10.434
-10.433 -10.432 -10.432 -10.431 -10.431 -10.430 -10.430 -10.430
-10.429 -10.424 -10.423 -10.418 -10.418 -10.415  -6.959  -6.949
 -1.089  -1.075  -1.026  -1.025  -0.973  -0.970  -0.968  -0.968
 -0.950  -0.949  -0.949  -0.941  -0.941  -0.930  -0.917  -0.908
 -0.900  -0.885  -0.878  -0.867  -0.865  -0.859  -0.857  -0.855
 -0.854  -0.848  -0.845  -0.839  -0.835  -0.830  -0.830  -0.827
 -0.823  -0.820  -0.813  -0.813  -0.810  -0.801  -0.796  -0.778
 -0.744  -0.739  -0.735  -0.729  -0.727  -0.720  -0.710  -0.708
 -0.707  -0.707  -0.697  -0.693  -0.689  -0.688  -0.687  -0.686
 -0.678  -0.675  -0.670  -0.663  -0.656  -0.654  -0.646  -0.641
 -0.626  -0.624  -0.613  -0.605  -0.600  -0.598  -0.596  -0.595
 -0.592  -0.590  -0.584  -0.583  -0.576  -0.570  -0.565  -0.553
 -0.551  -0.550  -0.549  -0.545  -0.539  -0.535  -0.531  -0.530
 -0.529  -0.522  -0.518  -0.516  -0.514  -0.512  -0.511  -0.508
 -0.505  -0.503  -0.502  -0.502  -0.499  -0.496  -0.496  -0.495
 -0.495  -0.494  -0.490  -0.489  -0.488  -0.487  -0.486  -0.485
 -0.485  -0.481  -0.478  -0.476  -0.473  -0.473  -0.471  -0.467
 -0.463  -0.461  -0.460  -0.455  -0.449  -0.446  -0.444  -0.443
 -0.440  -0.437  -0.437  -0.436  -0.435  -0.430  -0.427  -0.426
 -0.424  -0.419  -0.418  -0.416  -0.414  -0.414  -0.407  -0.406
 -0.405  -0.405  -0.405  -0.404  -0.403  -0.403  -0.401  -0.400
 -0.399  -0.397  -0.397  -0.395  -0.391  -0.389  -0.388  -0.385
 -0.384  -0.380  -0.377  -0.367  -0.364  -0.360  -0.359  -0.358
 -0.341  -0.340  -0.330  -0.325  -0.313  -0.309  -0.306  -0.305
 -0.304  -0.296  -0.293  -0.293  -0.289  -0.285  -0.285  -0.275
 -0.271  -0.269  -0.268  -0.264  -0.233  -0.205

          Ground-State Mulliken Net Atomic Charges

     Atom                 Charge (a.u.)
  ----------------------------------------
      1 C                    -0.154006
      2 C                    -0.399600
      3 H                     0.245781
      4 C                     0.070813
      5 C                     0.096491
      6 C                    -0.403888
      7 H                     0.265426
      8 C                    -0.148917
      9 C                     0.172322
     10 C                    -0.390278
     11 H                     0.252535
     12 C                    -0.070505
     13 C                     0.215961
     14 C                     0.176393
     15 C                    -0.397507
     16 H                     0.262969
     17 C                    -0.237548
     18 H                     0.261129
     19 C                    -0.346635
     20 H                     0.259209
     21 C                    -0.234203
     22 H                     0.264357
     23 C                    -0.351100
     24 H                     0.259850
     25 B                     0.623143
     26 C                    -0.145316
     27 C                    -0.400996
     28 H                     0.263364
     29 C                     0.093976
     30 C                     0.071828
     31 C                    -0.401659
     32 H                     0.245158
     33 C                    -0.149012
     34 C                     0.175193
     35 C                    -0.391444
     36 H                     0.253028
     37 C                    -0.070929
     38 C                     0.214120
     39 C                     0.177442
     40 C                    -0.397395
     41 H                     0.262333
     42 C                    -0.237119
     43 H                     0.261313
     44 C                    -0.346003
     45 H                     0.259525
     46 C                    -0.349920
     47 H                     0.259871
     48 C                    -0.234387
     49 H                     0.264242
     50 B                     0.630021
     51 C                    -0.246811
     52 C                     0.088440
     53 C                    -0.380460
     54 H                     0.260633
     55 C                     0.325829
     56 N                    -0.656713
     57 C                     0.283156
     58 C                    -0.291240
     59 H                     0.266067
     60 C                    -0.243275
     61 H                     0.249021
     62 C                    -0.263860
     63 H                     0.243723
     64 C                    -0.243477
     65 H                     0.246712
     66 C                    -0.285774
     67 H                     0.267222
     68 C                    -0.388189
     69 H                     0.260951
     70 C                     0.074135
     71 C                     0.255031
     72 C                    -0.277512
     73 H                     0.266070
     74 C                    -0.245871
     75 H                     0.249918
     76 C                    -0.259528
     77 H                     0.244907
     78 C                    -0.244713
     79 H                     0.246920
     80 C                    -0.271980
     81 H                     0.265482
     82 C                    -0.547808
     83 H                     0.237064
     84 H                     0.249066
     85 C                    -0.554705
     86 H                     0.243882
     87 H                     0.250673
     88 C                    -0.659970
     89 H                     0.228302
     90 H                     0.225077
     91 H                     0.231175
     92 C                    -0.658596
     93 H                     0.230360
     94 H                     0.223197
     95 H                     0.231196
     96 C                    -0.223956
     97 C                     0.061215
     98 C                    -0.355472
     99 H                     0.247572
    100 C                     0.298052
    101 C                    -0.362944
    102 H                     0.249105
    103 C                     0.048042
    104 N                    -0.670063
    105 C                     0.298673
    106 C                    -0.305737
    107 H                     0.262126
    108 C                    -0.242314
    109 H                     0.252423
    110 C                    -0.269691
    111 H                     0.249389
    112 C                    -0.242396
    113 H                     0.251293
    114 C                    -0.298288
    115 H                     0.257925
    116 C                     0.284583
    117 C                    -0.295963
    118 H                     0.256894
    119 C                    -0.244140
    120 H                     0.251153
    121 C                    -0.266180
    122 H                     0.250355
    123 C                    -0.244028
    124 H                     0.253172
    125 C                    -0.290213
    126 H                     0.262358
    127 C                    -0.548106
    128 H                     0.246869
    129 H                     0.245522
    130 C                    -0.553021
    131 H                     0.253834
    132 H                     0.246605
    133 C                    -0.657722
    134 H                     0.230390
    135 H                     0.231960
    136 H                     0.225322
    137 C                    -0.656682
    138 H                     0.231521
    139 H                     0.232503
    140 H                     0.224910
  ----------------------------------------
  Sum of atomic charges =    -0.000000

                    Cartesian Multipole Moments
 -----------------------------------------------------------------
    Charge (ESU x 10^10)
                -0.0000
    Dipole Moment (Debye)
         X      -2.6137      Y       0.2786      Z      -1.0204
       Tot       2.8196
    Quadrupole Moments (Debye-Ang)
        XX    -392.8582     XY      -3.7855     YY    -457.3020
        XZ      -4.6473     YZ       0.7267     ZZ    -373.6458

 Total job time:  37781.36s(wall), 107762.11s(cpu)
        *  Thank you very much for using Q-Chem.  Have a nice day.  *
