 Q-Chem 5.1, Q-Chem, Inc., Pleasanton, CA (2018)
 Q-Chem 5.1.1 for Intel X86 EM64T Linux

User input:
--------------------------------------------------------------
$solvent
dielectric      1.0001
dielectric_infi 1.00009
$end

$rem
threads 8
jobtype	sp
method PBEh-3c
basis def2-mSVP
mem_static	1024
mem_total	14000
sym_ignore	true
cis_n_roots             2
cis_singlets            false
cis_triplets		true
rpa                     false
calc_soc 		true
cis_moments             true
cis_relaxed_density	true
solvent_method		pcm
$end

$pcm
StateSpecific   1
ChargeSeparation Excited
$end

$molecule
read ut1opt_vac.mol
$end

--------------------------------------------------------------

   15   -3084.7739914162      6.98e-09  Convergence criterion met
 Total energy in the final basis set =    -3084.7739914162

         TDDFT/TDA Excitation Energies
 ---------------------------------------------------

 Excited state   1: excitation energy (eV) =    2.0645
 Total energy for state  1:                 -3084.69812077 au
    Multiplicity: Triplet
    Trans. Mom.:  0.0000 X   0.0000 Y   0.0000 Z
    Strength   :     0.0000000000
    D(270) --> V(  1) amplitude =  0.9437

 Excited state   2: excitation energy (eV) =    2.2055
 Total energy for state  2:                 -3084.69293924 au
    Multiplicity: Triplet
    Trans. Mom.:  0.0000 X   0.0000 Y   0.0000 Z
    Strength   :     0.0000000000
    D(267) --> V(  1) amplitude = -0.5936
    D(268) --> V(  1) amplitude =  0.6812

 ---------------------------------------------------

                    Orbital Energies (a.u.)
 --------------------------------------------------------------

 Alpha MOs
 -- Occupied --
-14.668 -14.667 -10.490 -10.490 -10.488 -10.488 -10.483 -10.481
-10.465 -10.465 -10.465 -10.465 -10.464 -10.464 -10.463 -10.463
-10.462 -10.462 -10.462 -10.462 -10.462 -10.462 -10.461 -10.460
-10.460 -10.460 -10.460 -10.460 -10.460 -10.459 -10.453 -10.453
-10.451 -10.451 -10.450 -10.450 -10.449 -10.449 -10.449 -10.448
-10.448 -10.448 -10.447 -10.447 -10.447 -10.446 -10.446 -10.446
-10.446 -10.445 -10.444 -10.444 -10.444 -10.443 -10.443 -10.443
-10.442 -10.441 -10.440 -10.438 -10.433 -10.433 -10.433 -10.433
-10.433 -10.432 -10.432 -10.432 -10.429 -10.427 -10.427 -10.426
-10.422 -10.419 -10.418 -10.416 -10.414 -10.413  -6.946  -6.937
 -1.084  -1.077  -1.015  -1.014  -0.963  -0.962  -0.958  -0.957
 -0.957  -0.956  -0.937  -0.937  -0.933  -0.933  -0.907  -0.898
 -0.888  -0.885  -0.866  -0.862  -0.854  -0.854  -0.852  -0.848
 -0.847  -0.846  -0.842  -0.841  -0.838  -0.834  -0.824  -0.819
 -0.818  -0.813  -0.811  -0.802  -0.798  -0.797  -0.789  -0.782
 -0.735  -0.731  -0.727  -0.720  -0.715  -0.714  -0.710  -0.709
 -0.697  -0.697  -0.697  -0.695  -0.689  -0.685  -0.680  -0.679
 -0.678  -0.674  -0.667  -0.665  -0.647  -0.644  -0.637  -0.635
 -0.629  -0.626  -0.604  -0.603  -0.596  -0.593  -0.593  -0.589
 -0.584  -0.583  -0.583  -0.576  -0.575  -0.561  -0.560  -0.553
 -0.552  -0.543  -0.542  -0.541  -0.540  -0.535  -0.527  -0.526
 -0.524  -0.520  -0.516  -0.513  -0.509  -0.507  -0.503  -0.502
 -0.501  -0.498  -0.497  -0.495  -0.494  -0.493  -0.493  -0.489
 -0.488  -0.487  -0.486  -0.484  -0.483  -0.483  -0.482  -0.482
 -0.482  -0.479  -0.478  -0.477  -0.475  -0.467  -0.466  -0.461
 -0.460  -0.454  -0.453  -0.448  -0.441  -0.440  -0.434  -0.434
 -0.433  -0.432  -0.429  -0.427  -0.426  -0.425  -0.424  -0.424
 -0.421  -0.419  -0.419  -0.415  -0.413  -0.410  -0.409  -0.404
 -0.403  -0.402  -0.399  -0.399  -0.397  -0.397  -0.395  -0.395
 -0.394  -0.393  -0.392  -0.391  -0.390  -0.384  -0.383  -0.381
 -0.377  -0.371  -0.367  -0.360  -0.355  -0.354  -0.349  -0.347
 -0.342  -0.333  -0.317  -0.312  -0.306  -0.300  -0.300  -0.297
 -0.296  -0.295  -0.294  -0.292  -0.284  -0.281  -0.279  -0.272
 -0.271  -0.260  -0.255  -0.253  -0.219  -0.211

          Ground-State Mulliken Net Atomic Charges

     Atom                 Charge (a.u.)
  ----------------------------------------
      1 C                    -0.148681
      2 C                    -0.390355
      3 H                     0.231844
      4 C                     0.092822
      5 C                     0.118797
      6 C                    -0.393023
      7 H                     0.233733
      8 C                    -0.151255
      9 C                     0.194862
     10 C                    -0.374505
     11 H                     0.216777
     12 C                    -0.066673
     13 C                     0.252628
     14 C                     0.200773
     15 C                    -0.385406
     16 H                     0.217235
     17 C                    -0.205401
     18 H                     0.226192
     19 C                    -0.331344
     20 H                     0.220435
     21 C                    -0.337073
     22 H                     0.220756
     23 C                    -0.201966
     24 H                     0.225562
     25 B                     0.626576
     26 C                    -0.142244
     27 C                    -0.394125
     28 H                     0.234225
     29 C                     0.116462
     30 C                     0.093316
     31 C                    -0.394248
     32 H                     0.231796
     33 C                    -0.145250
     34 C                     0.197167
     35 C                    -0.376292
     36 H                     0.219136
     37 C                    -0.067323
     38 C                     0.250715
     39 C                     0.201376
     40 C                    -0.385283
     41 H                     0.218015
     42 C                    -0.205316
     43 H                     0.226701
     44 C                    -0.330829
     45 H                     0.220685
     46 C                    -0.335690
     47 H                     0.220786
     48 C                    -0.202002
     49 H                     0.225780
     50 B                     0.650314
     51 C                    -0.244092
     52 C                     0.106907
     53 C                    -0.384598
     54 H                     0.238913
     55 C                     0.326793
     56 N                    -0.661424
     57 C                     0.280702
     58 C                    -0.270886
     59 H                     0.243225
     60 C                    -0.216855
     61 H                     0.221581
     62 C                    -0.234337
     63 H                     0.218161
     64 C                    -0.217419
     65 H                     0.219915
     66 C                    -0.267151
     67 H                     0.247952
     68 C                    -0.388483
     69 H                     0.239810
     70 C                     0.091421
     71 C                     0.253747
     72 C                    -0.259002
     73 H                     0.242218
     74 C                    -0.219194
     75 H                     0.222603
     76 C                    -0.231345
     77 H                     0.219506
     78 C                    -0.218329
     79 H                     0.221302
     80 C                    -0.252376
     81 H                     0.244259
     82 C                    -0.545607
     83 H                     0.247858
     84 H                     0.227772
     85 C                    -0.553132
     86 H                     0.256705
     87 H                     0.230180
     88 C                    -0.649377
     89 H                     0.245940
     90 H                     0.219005
     91 H                     0.217224
     92 C                    -0.645860
     93 H                     0.248524
     94 H                     0.215220
     95 H                     0.216940
     96 C                    -0.227592
     97 C                     0.075960
     98 C                    -0.339217
     99 H                     0.229547
    100 C                     0.292302
    101 C                    -0.347978
    102 H                     0.233751
    103 C                     0.066329
    104 N                    -0.673062
    105 C                     0.305259
    106 C                    -0.289521
    107 H                     0.246942
    108 C                    -0.212237
    109 H                     0.219149
    110 C                    -0.240339
    111 H                     0.216373
    112 C                    -0.212268
    113 H                     0.218076
    114 C                    -0.280103
    115 H                     0.240908
    116 C                     0.289081
    117 C                    -0.274686
    118 H                     0.238967
    119 C                    -0.213778
    120 H                     0.217450
    121 C                    -0.237148
    122 H                     0.217606
    123 C                    -0.214848
    124 H                     0.220190
    125 C                    -0.272839
    126 H                     0.245114
    127 C                    -0.547401
    128 H                     0.250427
    129 H                     0.230725
    130 C                    -0.551826
    131 H                     0.255820
    132 H                     0.232206
    133 C                    -0.645051
    134 H                     0.238597
    135 H                     0.219752
    136 H                     0.218991
    137 C                    -0.642067
    138 H                     0.240319
    139 H                     0.217828
    140 H                     0.218200
  ----------------------------------------
  Sum of atomic charges =    -0.000000

                    Cartesian Multipole Moments
 -----------------------------------------------------------------
    Charge (ESU x 10^10)
                -0.0000
    Dipole Moment (Debye)
         X      -1.1101      Y       0.0599      Z      -0.3907
       Tot       1.1784
    Quadrupole Moments (Debye-Ang)
        XX    -418.3912     XY      -3.7879     YY    -462.5571
        XZ      -8.6037     YZ       0.4711     ZZ    -401.1186

 Total job time:  18133.22s(wall), 54159.98s(cpu)
        *  Thank you very much for using Q-Chem.  Have a nice day.  *
 Q-Chem 5.1, Q-Chem, Inc., Pleasanton, CA (2018)
 Q-Chem 5.1.1 for Intel X86 EM64T Linux

User input:
--------------------------------------------------------------
$rem
threads 8
jobtype sp
method PBEh-3c
basis def2-mSVP
mem_static      1024
mem_total       14000
sym_ignore      true
cis_n_roots             6
cis_singlets            true
cis_triplets            true
rpa                     false
calc_soc                true
cis_moments             true
cis_relaxed_density     true
solvent_method          pcm
$end

$molecule
read
$end

$pcm
statespecific           Marcus
$end

$solvent
dielectric      1.0001
dielectric_infi 1.00009
$end

--------------------------------------------------------------

             Standard Nuclear Orientation (Angstroms)
    I     Atom           X                Y                Z
 ----------------------------------------------------------------
    1      C       0.0000000000     0.0000000000     0.0000000000
    2      C       0.0000000000     0.0000000000     1.4050340000
    3      H       0.9485016003     0.0000000000     1.9323193110
    4      C      -1.1782009195     0.0018687289     2.1090349313
    5      C      -2.4305233235     0.0077389336     1.4293166474
    6      C      -2.4539470621     0.0214459795     0.0568899615
    7      H      -3.4091148098     0.0291744738    -0.4613646134
    8      C      -1.2500197825     0.0169757334    -0.6891990177
    9      C      -1.4303099063    -0.0043806494     3.5418000719
   10      C      -0.6404983965    -0.0081459173     4.6638143792
   11      H       0.4408113733    -0.0037454643     4.5997983295
   12      C      -2.8306117836    -0.0081212216     3.6968161291
   13      C      -3.4727650763    -0.0204595237     4.9306667639
   14      C      -3.4857679123    -0.0029305059     2.4472610255
   15      C      -4.8567109581    -0.0135925185     2.4418966284
   16      H      -5.4235901878    -0.0170048042     1.5189404802
   17      C      -1.2684672025    -0.0178293073     5.9295036507
   18      H      -0.6463288501    -0.0205323415     6.8156821193
   19      C      -2.6363848149    -0.0247884179     6.0747142288
   20      H      -3.0733155726    -0.0339228216     7.0657471137
   21      C      -4.8866629665    -0.0291071591     4.8910942112
   22      H      -5.4557039438    -0.0401840269     5.8126506454
   23      C      -5.5399711685    -0.0267330895     3.6804570022
   24      H      -6.6225037304    -0.0377555961     3.6719627883
   25      B      -1.2464823644     0.0531593597    -2.2178057348
   26      C       0.0524445439    -0.0148053576    -3.0143488816
   27      C       0.0607674415    -0.0157078851    -4.4316271566
   28      H      -0.8782710897     0.0205178811    -4.9772344698
   29      C       1.2417351734    -0.0617076521    -5.1259692455
   30      C       2.4771748310    -0.0946680067    -4.4134434427
   31      C       2.4927766611    -0.0760457783    -3.0411414676
   32      H       3.4385033730    -0.0889835119    -2.5085489010
   33      C       1.2949985665    -0.0364962739    -2.3089529509
   34      C       3.5652984412    -0.1389674757    -5.3789993137
   35      C       4.9357118572    -0.1859245343    -5.2986118577
   36      H       5.4511677676    -0.1946248392    -4.3460818281
   37      C       2.9625994541    -0.1325698593    -6.6526852293
   38      C       3.6765757893    -0.1726409472    -7.8476643991
   39      C       1.5560869407    -0.0868791262    -6.5582272815
   40      C       0.8349770605    -0.0817986109    -7.7251064303
   41      H      -0.2476208287    -0.0506438367    -7.7265187126
   42      C       5.6826885689    -0.2253195818    -6.4972859480
   43      H       6.7629091996    -0.2623598572    -6.4324059625
   44      C       5.0884709212    -0.2200838239    -7.7378711087
   45      H       5.7010233716    -0.2530089866    -8.6306720351
   46      C       2.9041922135    -0.1648360567    -9.0322150699
   47      H       3.3922440778    -0.1951196633    -9.9988671986
   48      C       1.5314447999    -0.1205721831    -8.9556556187
   49      H       0.9574623392    -0.1164978798    -9.8736152563
   50      B       1.3315062342     0.0080093526    -0.7735776438
   51      C      -2.6012236871     0.3003298529    -2.9793961526
   52      C      -3.3036724294    -0.7489500182    -3.6409219364
   53      C      -4.5091274298    -0.5005421977    -4.2466197647
   54      H      -5.0614303833    -1.3126693012    -4.7027457763
   55      C      -5.0737637033     0.7948934857    -4.2096727451
   56      N      -6.2970991334     1.0427214765    -4.7620965710
   57      C      -6.7924795948     0.2744008450    -5.8382611007
   58      C      -8.1149886597    -0.1584143650    -5.8274823502
   59      H      -8.7571643974     0.0794551484    -4.9896930470
   60      C      -8.5928769210    -0.9093527271    -6.8864463766
   61      H      -9.6170788651    -1.2561289875    -6.8738458896
   62      C      -7.7622917653    -1.2278714584    -7.9525950602
   63      H      -8.1404531181    -1.8179969837    -8.7761358289
   64      C      -6.4478017987    -0.7836371765    -7.9628850769
   65      H      -5.8005803257    -1.0165794414    -8.7973780556
   66      C      -5.9591798284    -0.0268376814    -6.9126094123
   67      H      -4.9408182365     0.3398184892    -6.9280978550
   68      C      -4.3668038667     1.8439835816    -3.5817850597
   69      H      -4.7708440584     2.8479726123    -3.6049292772
   70      C      -3.1503570367     1.6172863863    -2.9948883201
   71      C      -7.1039939464     2.0895446937    -4.2541938595
   72      C      -7.6633958976     3.0203886779    -5.1227274553
   73      H      -7.4805911551     2.9483305747    -6.1870481297
   74      C      -8.4328403825     4.0500997434    -4.6097723750
   75      H      -8.8568267107     4.7841680848    -5.2813021947
   76      C      -8.6481152215     4.1508399960    -3.2418902105
   77      H      -9.2464306050     4.9605546407    -2.8469281524
   78      C      -8.0956853841     3.2126099227    -2.3818051829
   79      H      -8.2668337427     3.2823772711    -1.3162949129
   80      C      -7.3260656340     2.1775548681    -2.8829200117
   81      H      -6.8997001576     1.4393196190    -2.2158324630
   82      C      -2.7561436015    -2.1480389048    -3.6173803977
   83      H      -1.6762904824    -2.1171285606    -3.7746355967
   84      H      -3.1791565883    -2.7155199409    -4.4499509624
   85      C      -2.3912061750     2.7777364414    -2.4118522713
   86      H      -1.8986056674     2.4683934853    -1.4891729857
   87      H      -3.0968450949     3.5666104629    -2.1396131410
   88      C      -3.0514374939    -2.8694978102    -2.3030894599
   89      H      -2.5952916543    -2.3584904058    -1.4564917031
   90      H      -2.6486900187    -3.8815625520    -2.3305508350
   91      H      -4.1245057621    -2.9394263696    -2.1203610154
   92      C      -1.3492285940     3.3406958568    -3.3789762835
   93      H      -0.5946273660     2.5969823139    -3.6291584948
   94      H      -0.8361351007     4.1888722643    -2.9259709205
   95      H      -1.8101911572     3.6842032681    -4.3060969888
   96      C       2.7070322535     0.1115302347     0.0046493183
   97      C       3.4806305373    -1.0199194185     0.3020065327
   98      C       4.6681130547    -0.8986773435     1.0136548881
   99      H       5.2579148974    -1.7826633987     1.2307720506
  100      C       5.0998269421     0.3381599557     1.4720194187
  101      C       4.3453327053     1.4644413346     1.1771995069
  102      H       4.6744109725     2.4358141798     1.5305358158
  103      C       3.1732674110     1.3623375098     0.4390483870
  104      N       6.2769855208     0.4379290363     2.2478847731
  105      C       7.1746792470     1.4922529397     2.0357578151
  106      C       7.7735643590     2.1526778733     3.1098080555
  107      H       7.5398939220     1.8546534436     4.1235280310
  108      C       8.6624007967     3.1912231835     2.8877410886
  109      H       9.1149977902     3.6890632427     3.7358537129
  110      C       8.9573794269     3.6081741115     1.5986321465
  111      H       9.6455524154     4.4254718110     1.4291987221
  112      C       8.3535303486     2.9625471895     0.5290194188
  113      H       8.5739187655     3.2718946858    -0.4846674028
  114      C       7.4789236462     1.9103897188     0.7389494880
  115      H       7.0214349342     1.4097613694    -0.1042834067
  116      C       6.4389851105    -0.4176322989     3.3485276618
  117      C       5.3539578641    -0.7468086410     4.1595598723
  118      H       4.3777306216    -0.3363517617     3.9373366282
  119      C       5.5217136468    -1.5940569003     5.2420962422
  120      H       4.6676493924    -1.8388035914     5.8603494986
  121      C       6.7712265924    -2.1139492128     5.5461854456
  122      H       6.8999412309    -2.7701982548     6.3964911957
  123      C       7.8538262399    -1.7837026608     4.7435099667
  124      H       8.8339175595    -2.1884934521     4.9613343148
  125      C       7.6919563718    -0.9525764024     3.6484805021
  126      H       8.5400008302    -0.7118138040     3.0202296062
  127      C       3.0269193532    -2.4021755797    -0.0872452293
  128      H       2.4032730811    -2.3605062374    -0.9829266035
  129      H       3.8958337308    -3.0122830044    -0.3495526526
  130      C       2.4475856347     2.6352526156     0.0871453149
  131      H       1.3795324347     2.4431687569    -0.0368819769
  132      H       2.5333742920     3.3475694554     0.9125967257
  133      C       2.2553346577    -3.0818245039     1.0415570800
  134      H       1.3591890734    -2.5158901513     1.2962744219
  135      H       1.9444406954    -4.0881679467     0.7576673850
  136      H       2.8670368393    -3.1607500447     1.9416485231
  137      C       3.0021056668     3.2685430864    -1.1868750130
  138      H       2.9087633834     2.5873404210    -2.0327914968
  139      H       4.0582307087     3.5185909058    -1.0747553029
  140      H       2.4666254073     4.1862154296    -1.4355569540
 ----------------------------------------------------------------
