 Q-Chem 5.1, Q-Chem, Inc., Pleasanton, CA (2018)
 Q-Chem 5.1.1 for Intel X86 EM64T Linux

User input:
--------------------------------------------------------------
$solvent
dielectric      2.38
dielectric_infi 2.25
$end

$rem
threads 8
jobtype	sp
method PBEh-3c
basis def2-mSVP
mem_static	1024
mem_total	14000
sym_ignore	true
cis_n_roots             2
cis_singlets            false
cis_triplets		true
rpa                     false
calc_soc 		true
cis_moments             true
cis_relaxed_density	true
solvent_method		pcm
$end

$pcm
StateSpecific   1
ChargeSeparation Excited
$end

$molecule
read ut1opt_tol.mol
$end

--------------------------------------------------------------

   14   -3084.7975446675      8.29e-09  Convergence criterion met
 Total energy in the final basis set =    -3084.7975446675
 Total job time:  18033.23s(wall), 55062.25s(cpu)
        *  Thank you very much for using Q-Chem.  Have a nice day.  *
 Q-Chem 5.1, Q-Chem, Inc., Pleasanton, CA (2018)
 Q-Chem 5.1.1 for Intel X86 EM64T Linux

User input:
--------------------------------------------------------------
$rem
threads 8
jobtype sp
method PBEh-3c
basis def2-mSVP
mem_static      1024
mem_total       14000
sym_ignore      true
cis_n_roots             6
cis_singlets            true
cis_triplets            true
rpa                     false
calc_soc                true
cis_moments             true
cis_relaxed_density     true
solvent_method          pcm
$end

$molecule
read
$end

$pcm
statespecific           Marcus
$end

$solvent
dielectric      2.38
dielectric_infi 2.25
$end

--------------------------------------------------------------

             Standard Nuclear Orientation (Angstroms)
    I     Atom           X                Y                Z
 ----------------------------------------------------------------
    1      C       0.0000000000     0.0000000000     0.0000000000
    2      C       0.0000000000     0.0000000000     1.4060240000
    3      H       0.9473861595     0.0000000000     1.9354707385
    4      C      -1.1780024432    -0.0020540510     2.1104831294
    5      C      -2.4316694825     0.0021075376     1.4308066122
    6      C      -2.4550653399     0.0176261672     0.0575355591
    7      H      -3.4095974862     0.0256731117    -0.4611177284
    8      C      -1.2519598323     0.0143235417    -0.6893171516
    9      C      -1.4290853294    -0.0143404706     3.5435944817
   10      C      -0.6378032655    -0.0210909079     4.6657453176
   11      H       0.4436663472    -0.0133524271     4.6015309405
   12      C      -2.8298079539    -0.0232978346     3.6988767446
   13      C      -3.4714277854    -0.0441480880     4.9336016459
   14      C      -3.4861044457    -0.0147669877     2.4491229861
   15      C      -4.8580106801    -0.0301878576     2.4444086616
   16      H      -5.4261088532    -0.0304512165     1.5221690084
   17      C      -1.2655560092    -0.0388897371     5.9318990616
   18      H      -0.6428933386    -0.0440323826     6.8178438554
   19      C      -2.6343236288    -0.0513713969     6.0777693549
   20      H      -3.0710411456    -0.0670639154     7.0689430469
   21      C      -5.5400654303    -0.0517403654     3.6841783114
   22      H      -6.6226129472    -0.0661308174     3.6758750537
   23      C      -4.8860528416    -0.0580014958     4.8953339550
   24      H      -5.4543768071    -0.0757395434     5.8173238137
   25      B      -1.2545549991     0.0480102682    -2.2194841887
   26      C       0.0495390677    -0.0168018861    -3.0116307761
   27      C       0.0549568934    -0.0311041717    -4.4275041764
   28      H      -0.8861034572    -0.0030476522    -4.9696301678
   29      C       1.2357594859    -0.0774216529    -5.1250377927
   30      C       2.4732842834    -0.1000129467    -4.4146440619
   31      C       2.4917376408    -0.0749527813    -3.0429350573
   32      H       3.4397390026    -0.0837869130    -2.5140525732
   33      C       1.2938075546    -0.0363473724    -2.3080442527
   34      C       3.5605468870    -0.1444624518    -5.3830181913
   35      C       4.9318633683    -0.1829951491    -5.3053073244
   36      H       5.4501376234    -0.1823945323    -4.3540586741
   37      C       2.9542694241    -0.1492241057    -6.6552433373
   38      C       3.6658203052    -0.1931002746    -7.8522204357
   39      C       1.5469742733    -0.1100573631    -6.5576307704
   40      C       0.8224358034    -0.1161903497    -7.7234306294
   41      H      -0.2603528343    -0.0906877853    -7.7230218183
   42      C       5.6763842600    -0.2261365809    -6.5063000933
   43      H       6.7570692736    -0.2566796730    -6.4437068957
   44      C       5.0787898305    -0.2320746662    -7.7460017327
   45      H       5.6890332539    -0.2672180060    -8.6404434389
   46      C       2.8905356539    -0.1969026463    -9.0358265854
   47      H       3.3766450107    -0.2307555162   -10.0034484480
   48      C       1.5170463228    -0.1595029850    -8.9556792079
   49      H       0.9404155991    -0.1643038572    -9.8720544400
   50      B       1.3311273290     0.0059731212    -0.7733271587
   51      C      -2.6231214237     0.2586767080    -2.9773922656
   52      C      -3.3301327908    -0.8180096317    -3.5767195765
   53      C      -4.5547512100    -0.6028664716    -4.1625563060
   54      H      -5.1119669450    -1.4376705775    -4.5692395564
   55      C      -5.1241902631     0.6889425374    -4.1677017933
   56      N      -6.3639859170     0.9084236356    -4.6983700973
   57      C      -6.8771737811     0.1046600136    -5.7367329954
   58      C      -8.2043045727    -0.3159456700    -5.6897732748
   59      H      -8.8324052890    -0.0456273564    -4.8510289193
   60      C      -8.7016684597    -1.1024504516    -6.7128815391
   61      H      -9.7276116680    -1.4419725287    -6.6729639334
   62      C      -7.8874417643    -1.4649741907    -7.7788823854
   63      H      -8.2821224730    -2.0808347275    -8.5755968308
   64      C      -6.5689668896    -1.0323176916    -7.8249887174
   65      H      -5.9367310419    -1.2992448514    -8.6607991804
   66      C      -6.0585818535    -0.2431209509    -6.8098047664
   67      H      -5.0390331168     0.1175392096    -6.8558588199
   68      C      -4.4083862029     1.7668813104    -3.6054718123
   69      H      -4.8157599394     2.7683878198    -3.6622623715
   70      C      -3.1770603903     1.5666410416    -3.0350740626
   71      C      -7.1650768966     1.9633076013    -4.2017530776
   72      C      -7.7646951253     2.8540145440    -5.0870417098
   73      H      -7.6175682070     2.7446405001    -6.1537101659
   74      C      -8.5242178119     3.8963654829    -4.5855200792
   75      H      -8.9778574192     4.6018810002    -5.2682345498
   76      C      -8.6929356134     4.0454199985    -3.2145727599
   77      H      -9.2858383226     4.8639850219    -2.8294247708
   78      C      -8.1023481080     3.1447786359    -2.3385143123
   79      H      -8.2397389839     3.2521369792    -1.2712039066
   80      C      -7.3380048666     2.0997304490    -2.8264630546
   81      H      -6.8853273274     1.3886600949    -2.1472909541
   82      C      -2.7740389721    -2.2141154743    -3.5191154594
   83      H      -1.6933158820    -2.1817318134    -3.6698225927
   84      H      -3.1864052573    -2.8006530228    -4.3435018491
   85      C      -2.4125218629     2.7546869755    -2.5153333511
   86      H      -1.8679481095     2.4760935361    -1.6119293147
   87      H      -3.1174397511     3.5372042458    -2.2245477086
   88      C      -3.0763318409    -2.9136276178    -2.1952133122
   89      H      -2.6287893195    -2.3852859404    -1.3545292619
   90      H      -2.6707592345    -3.9251591103    -2.2006051555
   91      H      -4.1507669359    -2.9827909369    -2.0194445618
   92      C      -1.4319097150     3.3137472420    -3.5454971753
   93      H      -0.6785047650     2.5762688103    -3.8182593983
   94      H      -0.9109543392     4.1808180729    -3.1393161167
   95      H      -1.9468745518     3.6269920637    -4.4548184413
   96      C       2.7066635860     0.0978583187     0.0094242637
   97      C       3.4658836568    -1.0418124003     0.3142475840
   98      C       4.6472285667    -0.9343228035     1.0393692978
   99      H       5.2237189683    -1.8259995234     1.2620045044
  100      C       5.0871907530     0.2972111201     1.5054056614
  101      C       4.3495672641     1.4323047004     1.2000427591
  102      H       4.6838682300     2.4008992858     1.5563730206
  103      C       3.1845421242     1.3431863613     0.4478598159
  104      N       6.2539264626     0.3816604758     2.2984270726
  105      C       7.1568848215     1.4381439483     2.1145443438
  106      C       7.7099295466     2.1074767768     3.2076454963
  107      H       7.4379354770     1.8155612349     4.2138063512
  108      C       8.6031023148     3.1490354407     3.0142717803
  109      H       9.0199163104     3.6546256291     3.8761927535
  110      C       8.9474255348     3.5582186970     1.7342269517
  111      H       9.6386469838     4.3774520796     1.5867031314
  112      C       8.3903006687     2.9021663446     0.6448830390
  113      H       8.6506664106     3.2050536472    -0.3613563485
  114      C       7.5114519404     1.8474106950     0.8276889287
  115      H       7.0920195510     1.3386674276    -0.0306860199
  116      C       6.3939792554    -0.4789141296     3.3990237431
  117      C       5.2960319466    -0.8062714948     4.1938527875
  118      H       4.3237930960    -0.3910425684     3.9623606025
  119      C       5.4450768433    -1.6591208890     5.2757420582
  120      H       4.5812691099    -1.9024513914     5.8810789200
  121      C       6.6887223191    -2.1857241506     5.5948972219
  122      H       6.8029487383    -2.8463319337     6.4441194944
  123      C       7.7844213097    -1.8563111509     4.8086936179
  124      H       8.7598749128    -2.2659692728     5.0385595013
  125      C       7.6410163072    -1.0195849262     3.7145410880
  126      H       8.4996655286    -0.7808848426     3.0997430899
  127      C       3.0042995770    -2.4197941421    -0.0814495292
  128      H       2.3763141017    -2.3696665609    -0.9735438478
  129      H       3.8693688137    -3.0322480354    -0.3510101925
  130      C       2.4791762608     2.6253909327     0.0877871347
  131      H       1.4116898032     2.4454535326    -0.0571883086
  132      H       2.5587218454     3.3349848879     0.9161640446
  133      C       2.2347295105    -3.1038612753     1.0462765090
  134      H       1.3434802349    -2.5342273773     1.3104072682
  135      H       1.9160415185    -4.1058330597     0.7555072334
  136      H       2.8509461985    -3.1939077177     1.9424203398
  137      C       3.0630163692     3.2558263884    -1.1746714952
  138      H       2.9797423137     2.5759593207    -2.0228625296
  139      H       2.5390295329     4.1775539918    -1.4322284615
  140      H       4.1190433143     3.4971813123    -1.0423947784
 ----------------------------------------------------------------

   14   -3084.7970741941      8.34e-09  Convergence criterion met
 Total energy in the final basis set =    -3084.7970741941

         TDDFT/TDA Excitation Energies
 ---------------------------------------------------

 Excited state   1: excitation energy (eV) =    2.0725
 Total energy for state  1:                 -3084.72091276 au
    Multiplicity: Triplet
    Trans. Mom.:  0.0000 X   0.0000 Y   0.0000 Z
    Strength   :     0.0000000000
    D(270) --> V(  1) amplitude =  0.9537

 Excited state   2: excitation energy (eV) =    2.1214
 Total energy for state  2:                 -3084.71911440 au
    Multiplicity: Singlet
    Trans. Mom.: -0.8018 X   0.1102 Y  -0.2426 Z
    Strength   :     0.0371067051
    D(270) --> V(  1) amplitude =  0.9730

 Excited state   3: excitation energy (eV) =    2.2159
 Total energy for state  3:                 -3084.71564234 au
    Multiplicity: Triplet
    Trans. Mom.:  0.0000 X   0.0000 Y   0.0000 Z
    Strength   :     0.0000000000
    D(267) --> V(  1) amplitude =  0.7551
    D(268) --> V(  1) amplitude =  0.5086

 Excited state   4: excitation energy (eV) =    2.4309
 Total energy for state  4:                 -3084.70774045 au
    Multiplicity: Triplet
    Trans. Mom.:  0.0000 X   0.0000 Y   0.0000 Z
    Strength   :     0.0000000000
    D(266) --> V(  2) amplitude = -0.4636
    D(267) --> V(  1) amplitude = -0.4581
    D(268) --> V(  1) amplitude =  0.6467

 Excited state   5: excitation energy (eV) =    2.4771
 Total energy for state  5:                 -3084.70604219 au
    Multiplicity: Triplet
    Trans. Mom.:  0.0000 X   0.0000 Y   0.0000 Z
    Strength   :     0.0000000000
    D(266) --> V(  1) amplitude =  0.4130
    D(268) --> V(  2) amplitude = -0.2660
    D(269) --> V(  1) amplitude =  0.7904

 Excited state   6: excitation energy (eV) =    2.4945
 Total energy for state  6:                 -3084.70540475 au
    Multiplicity: Triplet
    Trans. Mom.:  0.0000 X   0.0000 Y   0.0000 Z
    Strength   :     0.0000000000
    D(266) --> V(  1) amplitude = -0.6121
    D(268) --> V(  2) amplitude =  0.4314
    D(269) --> V(  1) amplitude =  0.5211

 Excited state   7: excitation energy (eV) =    2.5013
 Total energy for state  7:                 -3084.70515247 au
    Multiplicity: Singlet
    Trans. Mom.: -0.2978 X  -0.0220 Y  -0.2604 Z
    Strength   :     0.0096200837
    D(269) --> V(  1) amplitude =  0.9727

 Excited state   8: excitation energy (eV) =    2.7306
 Total energy for state  8:                 -3084.69672690 au
    Multiplicity: Triplet
    Trans. Mom.:  0.0000 X   0.0000 Y   0.0000 Z
    Strength   :     0.0000000000
    D(261) --> V(  1) amplitude =  0.2360
    D(262) --> V(  1) amplitude =  0.5002
    D(263) --> V(  1) amplitude = -0.4329
    D(267) --> V(  2) amplitude =  0.5187

 Excited state   9: excitation energy (eV) =    2.8783
 Total energy for state  9:                 -3084.69129982 au
    Multiplicity: Singlet
    Trans. Mom.: -0.1907 X   0.0123 Y   0.4176 Z
    Strength   :     0.0148707991
    D(267) --> V(  1) amplitude =  0.8104
    D(268) --> V(  1) amplitude =  0.5305

 Excited state  10: excitation energy (eV) =    3.1179
 Total energy for state 10:                 -3084.68249223 au
    Multiplicity: Singlet
    Trans. Mom.: -1.9629 X   0.0292 Y   3.5519 Z
    Strength   :     1.2581162413
    D(267) --> V(  1) amplitude = -0.5244
    D(268) --> V(  1) amplitude =  0.7999

 Excited state  11: excitation energy (eV) =    3.3691
 Total energy for state 11:                 -3084.67326153 au
    Multiplicity: Singlet
    Trans. Mom.: -0.2660 X   0.0128 Y   0.0050 Z
    Strength   :     0.0058567465
    D(270) --> V(  2) amplitude =  0.9800

 Excited state  12: excitation energy (eV) =    3.4177
 Total energy for state 12:                 -3084.67147442 au
    Multiplicity: Singlet
    Trans. Mom.: -0.1755 X   0.1348 Y  -0.0090 Z
    Strength   :     0.0041083045
    D(266) --> V(  1) amplitude = -0.9234

 ---------------------------------------------------

                    Orbital Energies (a.u.)
 --------------------------------------------------------------

 Alpha MOs
 -- Occupied --
-14.670 -14.669 -10.492 -10.491 -10.491 -10.491 -10.486 -10.485
-10.467 -10.467 -10.467 -10.467 -10.466 -10.466 -10.466 -10.465
-10.465 -10.465 -10.465 -10.464 -10.463 -10.463 -10.463 -10.463
-10.463 -10.462 -10.460 -10.460 -10.460 -10.460 -10.457 -10.456
-10.455 -10.454 -10.452 -10.452 -10.450 -10.450 -10.450 -10.449
-10.449 -10.449 -10.449 -10.449 -10.448 -10.448 -10.448 -10.447
-10.447 -10.447 -10.446 -10.446 -10.446 -10.446 -10.445 -10.445
-10.444 -10.444 -10.444 -10.442 -10.437 -10.437 -10.437 -10.437
-10.436 -10.436 -10.435 -10.435 -10.431 -10.431 -10.431 -10.429
-10.426 -10.421 -10.420 -10.418 -10.417 -10.417  -6.950  -6.943
 -1.086  -1.080  -1.017  -1.017  -0.965  -0.963  -0.961  -0.961
 -0.960  -0.958  -0.941  -0.939  -0.934  -0.934  -0.909  -0.900
 -0.890  -0.887  -0.869  -0.865  -0.857  -0.856  -0.852  -0.851
 -0.848  -0.847  -0.842  -0.841  -0.841  -0.837  -0.826  -0.822
 -0.820  -0.815  -0.813  -0.805  -0.800  -0.800  -0.792  -0.785
 -0.737  -0.732  -0.728  -0.722  -0.717  -0.716  -0.712  -0.711
 -0.700  -0.699  -0.698  -0.696  -0.690  -0.684  -0.682  -0.681
 -0.681  -0.675  -0.669  -0.667  -0.649  -0.647  -0.638  -0.636
 -0.631  -0.629  -0.606  -0.604  -0.597  -0.595  -0.592  -0.589
 -0.587  -0.585  -0.583  -0.577  -0.576  -0.562  -0.561  -0.556
 -0.553  -0.544  -0.544  -0.543  -0.540  -0.537  -0.528  -0.526
 -0.525  -0.523  -0.518  -0.513  -0.511  -0.509  -0.505  -0.503
 -0.501  -0.500  -0.497  -0.497  -0.496  -0.496  -0.495  -0.491
 -0.489  -0.488  -0.487  -0.486  -0.486  -0.485  -0.484  -0.484
 -0.483  -0.481  -0.478  -0.477  -0.476  -0.469  -0.467  -0.463
 -0.462  -0.456  -0.455  -0.451  -0.443  -0.441  -0.437  -0.436
 -0.436  -0.435  -0.432  -0.429  -0.429  -0.428  -0.427  -0.427
 -0.421  -0.421  -0.420  -0.417  -0.413  -0.412  -0.409  -0.406
 -0.405  -0.403  -0.400  -0.399  -0.399  -0.398  -0.397  -0.397
 -0.397  -0.395  -0.394  -0.393  -0.392  -0.387  -0.386  -0.384
 -0.380  -0.373  -0.369  -0.364  -0.358  -0.357  -0.352  -0.351
 -0.345  -0.336  -0.321  -0.316  -0.307  -0.305  -0.301  -0.301
 -0.298  -0.297  -0.297  -0.296  -0.287  -0.284  -0.282  -0.275
 -0.275  -0.263  -0.258  -0.256  -0.223  -0.214

          Ground-State Mulliken Net Atomic Charges

     Atom                 Charge (a.u.)
  ----------------------------------------
      1 C                    -0.150945
      2 C                    -0.393740
      3 H                     0.243210
      4 C                     0.081084
      5 C                     0.107119
      6 C                    -0.397969
      7 H                     0.245596
      8 C                    -0.149500
      9 C                     0.182474
     10 C                    -0.383194
     11 H                     0.240426
     12 C                    -0.068626
     13 C                     0.231340
     14 C                     0.187306
     15 C                    -0.393431
     16 H                     0.241381
     17 C                    -0.225039
     18 H                     0.247415
     19 C                    -0.340968
     20 H                     0.243822
     21 C                    -0.221835
     22 H                     0.247116
     23 C                    -0.346175
     24 H                     0.244214
     25 B                     0.627282
     26 C                    -0.142202
     27 C                    -0.398277
     28 H                     0.245686
     29 C                     0.103673
     30 C                     0.082839
     31 C                    -0.397531
     32 H                     0.242564
     33 C                    -0.146353
     34 C                     0.185021
     35 C                    -0.384662
     36 H                     0.241638
     37 C                    -0.069013
     38 C                     0.229387
     39 C                     0.188023
     40 C                    -0.393296
     41 H                     0.241719
     42 C                    -0.224815
     43 H                     0.247713
     44 C                    -0.340330
     45 H                     0.244156
     46 C                    -0.344789
     47 H                     0.244301
     48 C                    -0.221920
     49 H                     0.247344
     50 B                     0.647839
     51 C                    -0.244316
     52 C                     0.095906
     53 C                    -0.390104
     54 H                     0.248694
     55 C                     0.323434
     56 N                    -0.658064
     57 C                     0.280798
     58 C                    -0.285799
     59 H                     0.256555
     60 C                    -0.234939
     61 H                     0.240671
     62 C                    -0.254310
     63 H                     0.236403
     64 C                    -0.235516
     65 H                     0.239816
     66 C                    -0.279970
     67 H                     0.260574
     68 C                    -0.394533
     69 H                     0.249306
     70 C                     0.080590
     71 C                     0.252506
     72 C                    -0.272616
     73 H                     0.255973
     74 C                    -0.237528
     75 H                     0.241609
     76 C                    -0.250230
     77 H                     0.237790
     78 C                    -0.236529
     79 H                     0.240773
     80 C                    -0.265179
     81 H                     0.258137
     82 C                    -0.547966
     83 H                     0.247474
     84 H                     0.237163
     85 C                    -0.555249
     86 H                     0.256024
     87 H                     0.239305
     88 C                    -0.657948
     89 H                     0.242296
     90 H                     0.224856
     91 H                     0.221231
     92 C                    -0.654677
     93 H                     0.243165
     94 H                     0.222500
     95 H                     0.220930
     96 C                    -0.226721
     97 C                     0.067887
     98 C                    -0.349889
     99 H                     0.240907
    100 C                     0.296288
    101 C                    -0.357215
    102 H                     0.243058
    103 C                     0.056831
    104 N                    -0.671529
    105 C                     0.300891
    106 C                    -0.298835
    107 H                     0.256450
    108 C                    -0.231613
    109 H                     0.239109
    110 C                    -0.259184
    111 H                     0.236079
    112 C                    -0.231590
    113 H                     0.238461
    114 C                    -0.291397
    115 H                     0.253063
    116 C                     0.288357
    117 C                    -0.289099
    118 H                     0.252199
    119 C                    -0.233067
    120 H                     0.238327
    121 C                    -0.256307
    122 H                     0.237008
    123 C                    -0.233336
    124 H                     0.239786
    125 C                    -0.284585
    126 H                     0.255920
    127 C                    -0.549079
    128 H                     0.250877
    129 H                     0.239319
    130 C                    -0.552715
    131 H                     0.256122
    132 H                     0.240374
    133 C                    -0.653412
    134 H                     0.236339
    135 H                     0.225701
    136 H                     0.221949
    137 C                    -0.651309
    138 H                     0.237011
    139 H                     0.224852
    140 H                     0.221636
  ----------------------------------------
  Sum of atomic charges =    -0.000000

                    Cartesian Multipole Moments
 -----------------------------------------------------------------
    Charge (ESU x 10^10)
                -0.0000
    Dipole Moment (Debye)
         X      -1.1262      Y       0.0875      Z      -0.3390
       Tot       1.1794
    Quadrupole Moments (Debye-Ang)
        XX    -407.7894     XY      -3.3472     YY    -459.3542
        XZ     -10.4234     YZ       1.1316     ZZ    -388.2260

 Total job time:  37733.89s(wall), 107196.58s(cpu)
        *  Thank you very much for using Q-Chem.  Have a nice day.  *
