 Q-Chem 5.1, Q-Chem, Inc., Pleasanton, CA (2018)
 Q-Chem 5.1.1 for Intel X86 EM64T Linux

User input:
--------------------------------------------------------------
$solvent
dielectric      4.33
dielectric_infi 1.83
$end

$rem
threads 8
jobtype	sp
method PBEh-3c
basis def2-mSVP
mem_static	1024
mem_total	14000
sym_ignore	true
cis_n_roots             2
cis_singlets            false
cis_triplets		true
rpa                     false
calc_soc 		true
cis_moments             true
cis_relaxed_density	true
solvent_method		pcm
$end

$pcm
StateSpecific   1
ChargeSeparation Excited
$end

$molecule
read ut1opt_eth.mol
$end

--------------------------------------------------------------

   14   -3084.8064252968      8.12e-09  Convergence criterion met
 Total energy in the final basis set =    -3084.8064252968
 Total job time:  18173.20s(wall), 55654.19s(cpu)
        *  Thank you very much for using Q-Chem.  Have a nice day.  *
 Q-Chem 5.1, Q-Chem, Inc., Pleasanton, CA (2018)
 Q-Chem 5.1.1 for Intel X86 EM64T Linux

User input:
--------------------------------------------------------------
$rem
threads 8
jobtype sp
method PBEh-3c
basis def2-mSVP
mem_static      1024
mem_total       14000
sym_ignore      true
cis_n_roots             6
cis_singlets            true
cis_triplets            true
rpa                     false
calc_soc                true
cis_moments             true
cis_relaxed_density     true
solvent_method          pcm
$end

$molecule
read
$end

$pcm
statespecific           Marcus
$end

$solvent
dielectric      4.33
dielectric_infi 1.83
$end

--------------------------------------------------------------

             Standard Nuclear Orientation (Angstroms)
    I     Atom           X                Y                Z
 ----------------------------------------------------------------
    1      C       0.0000000000     0.0000000000     0.0000000000
    2      C       0.0000000000     0.0000000000     1.4066170000
    3      H       0.9467958689     0.0000000000     1.9372515810
    4      C      -1.1780613778    -0.0026765598     2.1111625341
    5      C      -2.4322616396     0.0036298471     1.4312019900
    6      C      -2.4556932880     0.0185441975     0.0572977232
    7      H      -3.4100505996     0.0298733655    -0.4612452670
    8      C      -1.2528053487     0.0121858400    -0.6896676270
    9      C      -1.4290832607    -0.0160180494     3.5445807337
   10      C      -0.6374507678    -0.0257931594     4.6670409728
   11      H       0.4441577084    -0.0206641225     4.6032688773
   12      C      -2.8301036718    -0.0223652035     3.6993465489
   13      C      -3.4720608610    -0.0427688849     4.9343037016
   14      C      -3.4866450441    -0.0112072509     2.4493953197
   15      C      -4.8590670979    -0.0227219863     2.4442506708
   16      H      -5.4273872707    -0.0195158789     1.5221697877
   17      C      -1.2656971699    -0.0434994450     5.9332737910
   18      H      -0.6432276299    -0.0510637179     6.8193577022
   19      C      -2.6350150568    -0.0529922326     6.0788293680
   20      H      -3.0721438800    -0.0685809034     7.0698594443
   21      C      -5.5410472895    -0.0435748659     3.6844682190
   22      H      -6.6236058464    -0.0544109804     3.6757365777
   23      C      -4.8871176022    -0.0530306320     4.8961286029
   24      H      -5.4554427444    -0.0700356788     5.8181421207
   25      B      -1.2591057590     0.0423463493    -2.2209086642
   26      C       0.0481624726    -0.0255611113    -3.0105808591
   27      C       0.0527363175    -0.0512147379    -4.4260110129
   28      H      -0.8886819177    -0.0297177406    -4.9674182068
   29      C       1.2337669714    -0.1003318103    -5.1242692639
   30      C       2.4722463276    -0.1140030342    -4.4143310123
   31      C       2.4914936514    -0.0793498695    -3.0428247305
   32      H       3.4405026185    -0.0823680184    -2.5155449256
   33      C       1.2932904037    -0.0390368727    -2.3072083605
   34      C       3.5593724709    -0.1616164266    -5.3833320946
   35      C       4.9312637603    -0.1943687039    -5.3062565718
   36      H       5.4506386305    -0.1848971912    -4.3555528370
   37      C       2.9516927493    -0.1774618007    -6.6550110435
   38      C       3.6626309612    -0.2271473747    -7.8525068443
   39      C       1.5439917704    -0.1424487475    -6.5567292037
   40      C       0.8181249478    -0.1594443240    -7.7221354420
   41      H      -0.2647501275    -0.1378326063    -7.7213485426
   42      C       5.6750395451    -0.2432187848    -6.5078877736
   43      H       6.7559074179    -0.2691347301    -6.4460408308
   44      C       5.0761049641    -0.2600852102    -7.7473273352
   45      H       5.6855176250    -0.2991798431    -8.6422016520
   46      C       2.8864471180    -0.2420318527    -9.0359144062
   47      H       3.3720837709    -0.2808857538   -10.0036002935
   48      C       1.5124910675    -0.2090669586    -8.9547162371
   49      H       0.9349312627    -0.2224345407    -9.8703987381
   50      B       1.3309807934     0.0100472805    -0.7728879041
   51      C      -2.6286530070     0.2444539243    -2.9817452354
   52      C      -3.3359624600    -0.8394465798    -3.5606608602
   53      C      -4.5584547061    -0.6321224705    -4.1575410418
   54      H      -5.1169554910    -1.4730716958    -4.5498726169
   55      C      -5.1208494487     0.6603182015    -4.1912416677
   56      N      -6.3595400893     0.8746833654    -4.7330443696
   57      C      -6.8602837788     0.0660868219    -5.7710103021
   58      C      -8.1911463627    -0.3472729773    -5.7402103375
   59      H      -8.8303436376    -0.0687110153    -4.9126180466
   60      C      -8.6761426089    -1.1411472543    -6.7632615895
   61      H      -9.7040027344    -1.4760630858    -6.7358342874
   62      C      -7.8467779416    -1.5172632185    -7.8134411985
   63      H      -8.2323872290    -2.1382966685    -8.6106623292
   64      C      -6.5249254245    -1.0918539394    -7.8434592160
   65      H      -5.8818327558    -1.3688884849    -8.6676229742
   66      C      -6.0256740884    -0.2966744540    -6.8277550112
   67      H      -5.0044862074     0.0603161394    -6.8631294459
   68      C      -4.4053804238     1.7456388861    -3.6468802931
   69      H      -4.8079841091     2.7477262238    -3.7256070873
   70      C      -3.1771941637     1.5503466597    -3.0643047017
   71      C      -7.1646810814     1.9281468928    -4.2448499778
   72      C      -7.7723863190     2.8063401203    -5.1383740216
   73      H      -7.6264638901     2.6885208990    -6.2043011910
   74      C      -8.5353346955     3.8497617366    -4.6448667410
   75      H      -8.9944277485     4.5462882783    -5.3331541616
   76      C      -8.7007630842     4.0113713297    -3.2744729217
   77      H      -9.2975508120     4.8302632275    -2.8958992162
   78      C      -8.1024227628     3.1229560796    -2.3904807896
   79      H      -8.2387140561     3.2397422080    -1.3240065187
   80      C      -7.3328054028     2.0779466402    -2.8695894314
   81      H      -6.8764143191     1.3750335503    -2.1844944213
   82      C      -2.7892966482    -2.2378750695    -3.4689900241
   83      H      -1.7017727313    -2.2118724460    -3.5600106269
   84      H      -3.1580574805    -2.8269065451    -4.3119340466
   85      C      -2.4127362831     2.7464229663    -2.5613441365
   86      H      -1.8561632534     2.4778331109    -1.6620176577
   87      H      -3.1176815949     3.5279156331    -2.2682804760
   88      C      -3.1686419850    -2.9281959041    -2.1605542938
   89      H      -2.7716888897    -2.3914553032    -1.2995626464
   90      H      -2.7646554454    -3.9401333483    -2.1328326867
   91      H      -4.2517535160    -2.9947136305    -2.0483079090
   92      C      -1.4469696004     3.3031153883    -3.6063283284
   93      H      -0.6958166729     2.5653633096    -3.8854224642
   94      H      -0.9230984592     4.1742347477    -3.2123597471
   95      H      -1.9750858117     3.6093076167    -4.5104471039
   96      C       2.7066864505     0.1144002452     0.0093377438
   97      C       3.4712322288    -1.0187839318     0.3256714521
   98      C       4.6520898121    -0.8992205254     1.0502659560
   99      H       5.2321546151    -1.7866084774     1.2810705204
  100      C       5.0869708174     0.3388036326     1.5044547433
  101      C       4.3446524280     1.4678049748     1.1869303532
  102      H       4.6738895718     2.4416979778     1.5335410749
  103      C       3.1798281011     1.3661113705     0.4354849009
  104      N       6.2524105218     0.4350573859     2.2975967814
  105      C       7.1473101664     1.4985500808     2.1108786144
  106      C       7.6835152251     2.1846891554     3.2020260153
  107      H       7.4050670894     1.9017551799     4.2090599440
  108      C       8.5689765380     3.2328161791     3.0058178119
  109      H       8.9728670431     3.7516337965     3.8660721201
  110      C       8.9218781204     3.6311536928     1.7243475802
  111      H       9.6069992262     4.4551434940     1.5744650674
  112      C       8.3817915973     2.9576974035     0.6365703989
  113      H       8.6496127133     3.2516143592    -0.3704066137
  114      C       7.5107997576     1.8965593989     0.8228445299
  115      H       7.1060218942     1.3741523698    -0.0345160608
  116      C       6.3918043215    -0.4114528410     3.4099485307
  117      C       5.2939813604    -0.7275774928     4.2095765057
  118      H       4.3213649680    -0.3149810927     3.9744356384
  119      C       5.4434731243    -1.5656932290     5.3034083164
  120      H       4.5800558774    -1.8002782377     5.9128000028
  121      C       6.6876835298    -2.0878449706     5.6290149713
  122      H       6.8024151032    -2.7366180868     6.4873169239
  123      C       7.7834589458    -1.7691632888     4.8378376776
  124      H       8.7591046631    -2.1753594178     5.0731051159
  125      C       7.6392918354    -0.9472841978     3.7321585802
  126      H       8.4980960386    -0.7170583323     3.1141774036
  127      C       3.0175829225    -2.4029691460    -0.0576263768
  128      H       2.3772448089    -2.3624627707    -0.9413844895
  129      H       3.8846043186    -3.0088885857    -0.3355212122
  130      C       2.4694657236     2.6422310546     0.0634162109
  131      H       1.4036603850     2.4557467747    -0.0857739502
  132      H       2.5417983879     3.3582822399     0.8868262061
  133      C       2.2693400107    -3.0897315047     1.0828138134
  134      H       1.3776531762    -2.5260605692     1.3584316421
  135      H       1.9544572918    -4.0949413637     0.7992544458
  136      H       2.8988597655    -3.1726872688     1.9703790252
  137      C       3.0555261412     3.2674008350    -1.2007326828
  138      H       2.9819805558     2.5802251548    -2.0440737335
  139      H       2.5259461158     4.1830923772    -1.4679862328
  140      H       4.1090244435     3.5177860996    -1.0647503819
 ----------------------------------------------------------------

   14   -3084.8000653984      9.22e-09  Convergence criterion met
 Total energy in the final basis set =    -3084.8000653984

         TDDFT/TDA Excitation Energies
 ---------------------------------------------------

 Excited state   1: excitation energy (eV) =    1.7513
 Total energy for state  1:                 -3084.73570735 au
    Multiplicity: Triplet
    Trans. Mom.:  0.0000 X   0.0000 Y   0.0000 Z
    Strength   :     0.0000000000
    D(270) --> V(  1) amplitude =  0.9699

 Excited state   2: excitation energy (eV) =    1.7946
 Total energy for state  2:                 -3084.73411522 au
    Multiplicity: Singlet
    Trans. Mom.: -0.8192 X   0.1093 Y  -0.2970 Z
    Strength   :     0.0339087989
    D(270) --> V(  1) amplitude =  0.9764

 Excited state   3: excitation energy (eV) =    2.2325
 Total energy for state  3:                 -3084.71802344 au
    Multiplicity: Triplet
    Trans. Mom.:  0.0000 X   0.0000 Y   0.0000 Z
    Strength   :     0.0000000000
    D(261) --> V(  2) amplitude = -0.2272
    D(267) --> V(  1) amplitude =  0.8229
    D(268) --> V(  1) amplitude =  0.4034

 Excited state   4: excitation energy (eV) =    2.4312
 Total energy for state  4:                 -3084.71072131 au
    Multiplicity: Triplet
    Trans. Mom.:  0.0000 X   0.0000 Y   0.0000 Z
    Strength   :     0.0000000000
    D(266) --> V(  2) amplitude = -0.4407
    D(267) --> V(  1) amplitude = -0.3644
    D(268) --> V(  1) amplitude =  0.7023

 Excited state   5: excitation energy (eV) =    2.4844
 Total energy for state  5:                 -3084.70876429 au
    Multiplicity: Triplet
    Trans. Mom.:  0.0000 X   0.0000 Y   0.0000 Z
    Strength   :     0.0000000000
    D(266) --> V(  1) amplitude = -0.6155
    D(268) --> V(  2) amplitude =  0.4574
    D(269) --> V(  1) amplitude = -0.4568

 Excited state   6: excitation energy (eV) =    2.5042
 Total energy for state  6:                 -3084.70803784 au
    Multiplicity: Triplet
    Trans. Mom.:  0.0000 X   0.0000 Y   0.0000 Z
    Strength   :     0.0000000000
    D(266) --> V(  1) amplitude = -0.3296
    D(268) --> V(  2) amplitude =  0.2629
    D(269) --> V(  1) amplitude =  0.8348

 Excited state   7: excitation energy (eV) =    2.5185
 Total energy for state  7:                 -3084.70751212 au
    Multiplicity: Singlet
    Trans. Mom.: -0.2549 X  -0.0260 Y  -0.2452 Z
    Strength   :     0.0077603388
    D(269) --> V(  1) amplitude =  0.9729

 Excited state   8: excitation energy (eV) =    2.7405
 Total energy for state  8:                 -3084.69935381 au
    Multiplicity: Triplet
    Trans. Mom.:  0.0000 X   0.0000 Y   0.0000 Z
    Strength   :     0.0000000000
    D(261) --> V(  1) amplitude = -0.6558
    D(267) --> V(  2) amplitude =  0.5410

 Excited state   9: excitation energy (eV) =    2.9023
 Total energy for state  9:                 -3084.69340630 au
    Multiplicity: Singlet
    Trans. Mom.: -0.1504 X   0.0081 Y   0.3113 Z
    Strength   :     0.0085055767
    D(267) --> V(  1) amplitude =  0.8778
    D(268) --> V(  1) amplitude =  0.4028

 Excited state  10: excitation energy (eV) =    3.0107
 Total energy for state 10:                 -3084.68942585 au
    Multiplicity: Singlet
    Trans. Mom.: -0.3790 X  -0.0020 Y   0.3326 Z
    Strength   :     0.0187546649
    D(270) --> V(  2) amplitude =  0.9912

 Excited state  11: excitation energy (eV) =    3.1353
 Total energy for state 11:                 -3084.68484698 au
    Multiplicity: Singlet
    Trans. Mom.: -1.8800 X   0.0392 Y   3.4050 Z
    Strength   :     1.1621594681
    D(267) --> V(  1) amplitude = -0.3957
    D(268) --> V(  1) amplitude =  0.8698

 Excited state  12: excitation energy (eV) =    3.3641
 Total energy for state 12:                 -3084.67643599 au
    Multiplicity: Singlet
    Trans. Mom.: -0.3203 X   0.0778 Y  -0.2609 Z
    Strength   :     0.0145641145
    D(264) --> V(  1) amplitude =  0.2542
    D(265) --> V(  1) amplitude =  0.2164
    D(266) --> V(  1) amplitude = -0.2377
    D(270) --> V(  3) amplitude =  0.7565
    D(270) --> V(  4) amplitude = -0.4136

 ---------------------------------------------------

                    Orbital Energies (a.u.)
 --------------------------------------------------------------

 Alpha MOs
 -- Occupied --
-14.677 -14.660 -10.498 -10.497 -10.493 -10.480 -10.480 -10.479
-10.473 -10.473 -10.472 -10.472 -10.472 -10.472 -10.471 -10.471
-10.471 -10.471 -10.470 -10.470 -10.469 -10.469 -10.468 -10.468
-10.468 -10.467 -10.465 -10.465 -10.464 -10.464 -10.462 -10.462
-10.462 -10.461 -10.460 -10.460 -10.456 -10.456 -10.454 -10.454
-10.453 -10.453 -10.451 -10.451 -10.450 -10.450 -10.449 -10.447
-10.444 -10.444 -10.444 -10.443 -10.443 -10.443 -10.443 -10.443
-10.442 -10.442 -10.439 -10.438 -10.438 -10.437 -10.437 -10.436
-10.435 -10.435 -10.434 -10.433 -10.432 -10.429 -10.429 -10.428
-10.427 -10.425 -10.423 -10.418 -10.417 -10.414  -6.957  -6.947
 -1.086  -1.077  -1.023  -1.023  -0.971  -0.967  -0.966  -0.966
 -0.952  -0.951  -0.947  -0.940  -0.940  -0.932  -0.915  -0.906
 -0.898  -0.884  -0.875  -0.865  -0.863  -0.857  -0.857  -0.853
 -0.853  -0.846  -0.843  -0.841  -0.833  -0.832  -0.830  -0.828
 -0.821  -0.818  -0.814  -0.811  -0.807  -0.798  -0.796  -0.779
 -0.742  -0.737  -0.733  -0.727  -0.724  -0.717  -0.711  -0.707
 -0.706  -0.705  -0.695  -0.694  -0.688  -0.687  -0.686  -0.685
 -0.676  -0.673  -0.673  -0.665  -0.654  -0.652  -0.644  -0.638
 -0.628  -0.624  -0.611  -0.603  -0.599  -0.597  -0.595  -0.594
 -0.593  -0.589  -0.582  -0.582  -0.578  -0.568  -0.562  -0.554
 -0.550  -0.549  -0.548  -0.546  -0.538  -0.533  -0.531  -0.529
 -0.528  -0.520  -0.517  -0.516  -0.514  -0.510  -0.509  -0.506
 -0.504  -0.503  -0.502  -0.500  -0.497  -0.495  -0.494  -0.493
 -0.492  -0.492  -0.489  -0.488  -0.488  -0.486  -0.486  -0.484
 -0.483  -0.482  -0.477  -0.476  -0.476  -0.473  -0.471  -0.466
 -0.461  -0.461  -0.459  -0.453  -0.447  -0.443  -0.443  -0.442
 -0.438  -0.435  -0.435  -0.434  -0.433  -0.430  -0.427  -0.426
 -0.423  -0.420  -0.417  -0.417  -0.412  -0.411  -0.409  -0.405
 -0.404  -0.404  -0.403  -0.402  -0.402  -0.402  -0.400  -0.400
 -0.399  -0.398  -0.395  -0.393  -0.391  -0.390  -0.387  -0.386
 -0.383  -0.378  -0.375  -0.365  -0.362  -0.359  -0.357  -0.356
 -0.341  -0.339  -0.327  -0.322  -0.310  -0.307  -0.303  -0.303
 -0.302  -0.296  -0.294  -0.291  -0.290  -0.287  -0.282  -0.276
 -0.270  -0.269  -0.265  -0.262  -0.230  -0.206

          Ground-State Mulliken Net Atomic Charges

     Atom                 Charge (a.u.)
  ----------------------------------------
      1 C                    -0.152934
      2 C                    -0.397606
      3 H                     0.244308
      4 C                     0.074572
      5 C                     0.100607
      6 C                    -0.402295
      7 H                     0.259850
      8 C                    -0.148643
      9 C                     0.176150
     10 C                    -0.387940
     11 H                     0.247487
     12 C                    -0.069898
     13 C                     0.222113
     14 C                     0.180562
     15 C                    -0.396462
     16 H                     0.255528
     17 C                    -0.232739
     18 H                     0.255701
     19 C                    -0.344861
     20 H                     0.253091
     21 C                    -0.229496
     22 H                     0.258018
     23 C                    -0.349625
     24 H                     0.253684
     25 B                     0.624137
     26 C                    -0.144155
     27 C                    -0.400261
     28 H                     0.258302
     29 C                     0.097832
     30 C                     0.075903
     31 C                    -0.400360
     32 H                     0.243654
     33 C                    -0.147982
     34 C                     0.178918
     35 C                    -0.389251
     36 H                     0.248301
     37 C                    -0.070287
     38 C                     0.220227
     39 C                     0.181475
     40 C                    -0.396348
     41 H                     0.255088
     42 C                    -0.232381
     43 H                     0.255954
     44 C                    -0.344236
     45 H                     0.253406
     46 C                    -0.348372
     47 H                     0.253716
     48 C                    -0.229650
     49 H                     0.257959
     50 B                     0.635242
     51 C                    -0.247555
     52 C                     0.092311
     53 C                    -0.384446
     54 H                     0.256974
     55 C                     0.328009
     56 N                    -0.657635
     57 C                     0.282199
     58 C                    -0.288363
     59 H                     0.262624
     60 C                    -0.239821
     61 H                     0.245338
     62 C                    -0.259321
     63 H                     0.240498
     64 C                    -0.240159
     65 H                     0.243407
     66 C                    -0.282646
     67 H                     0.264765
     68 C                    -0.391169
     69 H                     0.257468
     70 C                     0.077943
     71 C                     0.253534
     72 C                    -0.274726
     73 H                     0.262413
     74 C                    -0.242447
     75 H                     0.246243
     76 C                    -0.255176
     77 H                     0.241690
     78 C                    -0.241223
     79 H                     0.243703
     80 C                    -0.268186
     81 H                     0.262542
     82 C                    -0.547973
     83 H                     0.239859
     84 H                     0.245190
     85 C                    -0.554802
     86 H                     0.247018
     87 H                     0.246967
     88 C                    -0.658880
     89 H                     0.232242
     90 H                     0.224574
     91 H                     0.227891
     92 C                    -0.656853
     93 H                     0.234187
     94 H                     0.222382
     95 H                     0.227939
     96 C                    -0.224779
     97 C                     0.063503
     98 C                    -0.353495
     99 H                     0.245004
    100 C                     0.297407
    101 C                    -0.360857
    102 H                     0.246782
    103 C                     0.051543
    104 N                    -0.670722
    105 C                     0.299391
    106 C                    -0.302845
    107 H                     0.260012
    108 C                    -0.238162
    109 H                     0.247365
    110 C                    -0.265547
    111 H                     0.244347
    112 C                    -0.238181
    113 H                     0.246335
    114 C                    -0.295608
    115 H                     0.255834
    116 C                     0.286529
    117 C                    -0.293541
    118 H                     0.254847
    119 C                    -0.239735
    120 H                     0.246076
    121 C                    -0.262474
    122 H                     0.245227
    123 C                    -0.239797
    124 H                     0.248046
    125 C                    -0.288275
    126 H                     0.259974
    127 C                    -0.548539
    128 H                     0.248316
    129 H                     0.243042
    130 C                    -0.552845
    131 H                     0.254606
    132 H                     0.244089
    133 C                    -0.656139
    134 H                     0.232588
    135 H                     0.229796
    136 H                     0.223979
    137 C                    -0.654651
    138 H                     0.233510
    139 H                     0.229952
    140 H                     0.223554
  ----------------------------------------
  Sum of atomic charges =    -0.000000

                    Cartesian Multipole Moments
 -----------------------------------------------------------------
    Charge (ESU x 10^10)
                -0.0000
    Dipole Moment (Debye)
         X      -2.3146      Y       0.2419      Z      -0.8986
       Tot       2.4947
    Quadrupole Moments (Debye-Ang)
        XX    -397.3199     XY      -3.6068     YY    -457.9545
        XZ      -5.3715     YZ       0.7476     ZZ    -379.3473

 Total job time:  37843.23s(wall), 108407.37s(cpu)
        *  Thank you very much for using Q-Chem.  Have a nice day.  *
