 Q-Chem 5.1, Q-Chem, Inc., Pleasanton, CA (2018)
 Q-Chem 5.1.1 for Intel X86 EM64T Linux

User input:
--------------------------------------------------------------
$solvent
dielectric      8.93
dielectric_infi 2.03
$end

$rem
threads 8
jobtype	sp
method PBEh-3c
basis def2-mSVP
mem_static	1024
mem_total	14000
sym_ignore	true
cis_n_roots             2
cis_singlets            false
cis_triplets		true
rpa                     false
calc_soc 		true
cis_moments             true
cis_relaxed_density	true
solvent_method		pcm
$end

$pcm
StateSpecific   1
ChargeSeparation Excited
$end

$molecule
read utleopt_dcm.mol
$end

--------------------------------------------------------------

   14   -3084.8131974947      8.17e-09  Convergence criterion met
 Total energy in the final basis set =    -3084.8131974947

                    Orbital Energies (a.u.)
 --------------------------------------------------------------

 Alpha MOs
 -- Occupied --
-14.673 -14.672 -10.494 -10.494 -10.494 -10.494 -10.488 -10.487
-10.470 -10.469 -10.468 -10.468 -10.468 -10.468 -10.467 -10.467
-10.466 -10.466 -10.466 -10.466 -10.465 -10.464 -10.463 -10.463
-10.463 -10.463 -10.460 -10.459 -10.459 -10.459 -10.459 -10.458
-10.458 -10.458 -10.455 -10.454 -10.452 -10.452 -10.452 -10.452
-10.450 -10.450 -10.450 -10.450 -10.450 -10.450 -10.449 -10.449
-10.448 -10.448 -10.448 -10.448 -10.447 -10.447 -10.446 -10.446
-10.445 -10.445 -10.444 -10.443 -10.441 -10.441 -10.440 -10.440
-10.439 -10.438 -10.436 -10.436 -10.436 -10.435 -10.434 -10.434
-10.429 -10.423 -10.422 -10.422 -10.421 -10.421  -6.953  -6.947
 -1.090  -1.082  -1.019  -1.019  -0.967  -0.964  -0.964  -0.962
 -0.962  -0.961  -0.942  -0.942  -0.935  -0.935  -0.911  -0.902
 -0.892  -0.891  -0.871  -0.868  -0.859  -0.859  -0.854  -0.853
 -0.848  -0.848  -0.844  -0.842  -0.842  -0.839  -0.828  -0.824
 -0.822  -0.816  -0.814  -0.807  -0.804  -0.802  -0.794  -0.789
 -0.738  -0.734  -0.729  -0.723  -0.719  -0.719  -0.715  -0.713
 -0.702  -0.701  -0.701  -0.700  -0.691  -0.684  -0.684  -0.682
 -0.681  -0.676  -0.671  -0.669  -0.650  -0.648  -0.640  -0.638
 -0.633  -0.632  -0.607  -0.607  -0.598  -0.597  -0.592  -0.589
 -0.588  -0.587  -0.584  -0.577  -0.577  -0.564  -0.563  -0.557
 -0.556  -0.546  -0.545  -0.544  -0.543  -0.539  -0.528  -0.526
 -0.525  -0.524  -0.520  -0.514  -0.512  -0.510  -0.506  -0.504
 -0.503  -0.501  -0.499  -0.499  -0.498  -0.497  -0.496  -0.492
 -0.491  -0.491  -0.489  -0.488  -0.487  -0.486  -0.486  -0.485
 -0.484  -0.482  -0.479  -0.478  -0.477  -0.471  -0.468  -0.466
 -0.463  -0.458  -0.456  -0.453  -0.445  -0.442  -0.439  -0.438
 -0.438  -0.436  -0.435  -0.431  -0.431  -0.429  -0.429  -0.429
 -0.425  -0.422  -0.421  -0.418  -0.413  -0.413  -0.410  -0.409
 -0.406  -0.405  -0.401  -0.400  -0.400  -0.399  -0.399  -0.398
 -0.398  -0.396  -0.395  -0.394  -0.393  -0.389  -0.388  -0.387
 -0.383  -0.376  -0.371  -0.368  -0.361  -0.361  -0.355  -0.353
 -0.350  -0.340  -0.324  -0.319  -0.308  -0.307  -0.304  -0.303
 -0.300  -0.299  -0.298  -0.298  -0.290  -0.287  -0.285  -0.279
 -0.277  -0.265  -0.261  -0.258  -0.226  -0.218

          Ground-State Mulliken Net Atomic Charges

     Atom                 Charge (a.u.)
  ----------------------------------------
      1 C                    -0.147616
      2 C                    -0.392260
      3 H                     0.251656
      4 C                     0.087740
      5 C                     0.082410
      6 C                    -0.400932
      7 H                     0.249223
      8 C                    -0.150659
      9 C                     0.175027
     10 C                    -0.389870
     11 H                     0.255240
     12 C                    -0.070980
     13 C                     0.215600
     14 C                     0.181578
     15 C                    -0.394446
     16 H                     0.254775
     17 C                    -0.235388
     18 H                     0.260666
     19 C                    -0.345931
     20 H                     0.258730
     21 C                    -0.233852
     22 H                     0.260327
     23 C                    -0.348320
     24 H                     0.258726
     25 B                     0.632261
     26 C                    -0.146970
     27 C                    -0.400297
     28 H                     0.251552
     29 C                     0.095499
     30 C                     0.077741
     31 C                    -0.397945
     32 H                     0.250287
     33 C                    -0.154179
     34 C                     0.174545
     35 C                    -0.389017
     36 H                     0.254865
     37 C                    -0.068497
     38 C                     0.218052
     39 C                     0.177134
     40 C                    -0.395926
     41 H                     0.255160
     42 C                    -0.236000
     43 H                     0.260532
     44 C                    -0.345565
     45 H                     0.258681
     46 C                    -0.233974
     47 H                     0.260147
     48 C                    -0.349416
     49 H                     0.258857
     50 B                     0.648393
     51 C                    -0.238993
     52 C                     0.069626
     53 C                    -0.380508
     54 H                     0.253537
     55 C                     0.300950
     56 N                    -0.653543
     57 C                     0.272686
     58 C                    -0.292828
     59 H                     0.264793
     60 C                    -0.245459
     61 H                     0.252061
     62 C                    -0.267122
     63 H                     0.247001
     64 C                    -0.244773
     65 H                     0.251335
     66 C                    -0.286811
     67 H                     0.266813
     68 C                     0.274343
     69 C                    -0.293183
     70 H                     0.264527
     71 C                    -0.244836
     72 H                     0.252006
     73 C                    -0.267736
     74 H                     0.246907
     75 C                    -0.244086
     76 H                     0.251619
     77 C                    -0.288923
     78 H                     0.266653
     79 C                    -0.381733
     80 H                     0.252940
     81 C                     0.083220
     82 C                    -0.549121
     83 H                     0.250229
     84 H                     0.243750
     85 C                    -0.555019
     86 H                     0.254020
     87 H                     0.244574
     88 C                    -0.661059
     89 H                     0.238117
     90 H                     0.228979
     91 H                     0.223780
     92 C                    -0.660829
     93 H                     0.239374
     94 H                     0.228410
     95 H                     0.223602
     96 C                    -0.223255
     97 C                     0.060670
     98 C                    -0.354113
     99 H                     0.246923
    100 C                     0.294703
    101 C                    -0.358550
    102 H                     0.248120
    103 C                     0.050446
    104 N                    -0.672309
    105 C                     0.304238
    106 C                    -0.307332
    107 H                     0.261931
    108 C                    -0.242000
    109 H                     0.250533
    110 C                    -0.271308
    111 H                     0.247197
    112 C                    -0.241886
    113 H                     0.250203
    114 C                    -0.302157
    115 H                     0.260483
    116 C                     0.289486
    117 C                    -0.297405
    118 H                     0.259967
    119 C                    -0.243799
    120 H                     0.250859
    121 C                    -0.267215
    122 H                     0.248476
    123 C                    -0.243992
    124 H                     0.251366
    125 C                    -0.292830
    126 H                     0.262094
    127 C                    -0.549867
    128 H                     0.250529
    129 H                     0.245040
    130 C                    -0.552914
    131 H                     0.254727
    132 H                     0.245820
    133 C                    -0.657639
    134 H                     0.233680
    135 H                     0.229238
    136 H                     0.224251
    137 C                    -0.656989
    138 H                     0.235033
    139 H                     0.228765
    140 H                     0.224129
  ----------------------------------------
  Sum of atomic charges =    -0.000000

                    Cartesian Multipole Moments
 -----------------------------------------------------------------
    Charge (ESU x 10^10)
                -0.0000
    Dipole Moment (Debye)
         X       0.6399      Y      -0.0813      Z       0.2220
       Tot       0.6822
    Quadrupole Moments (Debye-Ang)
        XX    -406.0565     XY       1.4498     YY    -460.4417
        XZ     -16.8878     YZ      -0.2527     ZZ    -378.8486

 Total job time:  17297.86s(wall), 48818.85s(cpu)
        *  Thank you very much for using Q-Chem.  Have a nice day.  *
 Q-Chem 5.1, Q-Chem, Inc., Pleasanton, CA (2018)
 Q-Chem 5.1.1 for Intel X86 EM64T Linux

User input:
--------------------------------------------------------------
$rem
threads 8
jobtype sp
method PBEh-3c
basis def2-mSVP
mem_static      1024
mem_total       14000
sym_ignore      true
cis_n_roots             6
cis_singlets            true
cis_triplets            true
rpa                     false
calc_soc                true
cis_moments             true
cis_relaxed_density     true
solvent_method          pcm
$end

$molecule
read
$end

$pcm
statespecific           Marcus
$end

$solvent
dielectric      8.93
dielectric_infi 2.03
$end

--------------------------------------------------------------

             Standard Nuclear Orientation (Angstroms)
    I     Atom           X                Y                Z
 ----------------------------------------------------------------
    1      C       0.0000000000     0.0000000000     0.0000000000
    2      C       0.0000000000     0.0000000000     1.4137340000
    3      H       0.9420487894     0.0000000000     1.9530773374
    4      C      -1.1778984674     0.0005585460     2.1153495921
    5      C      -2.4231531889     0.0094219823     1.4145967972
    6      C      -2.4463100131     0.0244011425     0.0406845752
    7      H      -3.3975794967     0.0412241539    -0.4829932382
    8      C      -1.2472000992     0.0194692684    -0.7006954295
    9      C      -3.4974415430     0.0081218407     2.4010589557
   10      C      -4.8707662046     0.0129656807     2.3452920534
   11      H      -5.4043986742     0.0199216750     1.4025080250
   12      C      -2.8734076730    -0.0009935390     3.6663838753
   13      C      -3.5664426651    -0.0057775045     4.8753699300
   14      C      -1.4673914042    -0.0051995680     3.5502449976
   15      C      -0.7216237334    -0.0143909065     4.7033683636
   16      H       0.3613447802    -0.0178714077     4.6836282420
   17      C      -5.5976674465     0.0085282155     3.5587668714
   18      H      -6.6795819743     0.0120703375     3.5123631508
   19      C      -4.9820279050    -0.0005335759     4.7905091602
   20      H      -5.5801180935    -0.0038164451     5.6938149809
   21      C      -1.3975515694    -0.0198378083     5.9467424692
   22      H      -0.8070070812    -0.0274607041     6.8541787227
   23      C      -2.7712554076    -0.0158110820     6.0475284805
   24      H      -3.2424433400    -0.0205091558     7.0230342039
   25      B       1.3162618837    -0.0065545104    -0.7805219273
   26      C       1.3099550896    -0.0303200211    -2.3090181721
   27      C       2.5171684555    -0.0630020446    -3.0459806081
   28      H       3.4667215323    -0.0861329706    -2.5191330763
   29      C       2.5023467359    -0.0629943933    -4.4193896330
   30      C       1.2543217299    -0.0245221972    -5.1108241368
   31      C       0.0708333804     0.0090957588    -4.4140088100
   32      H      -0.8716364927     0.0423268183    -4.9514141690
   33      C       0.0604342735     0.0032098193    -3.0058175074
   34      C       1.5236444364    -0.0252171126    -6.5430363439
   35      C       0.7498248412     0.0051723099    -7.6779707146
   36      H      -0.3321194080     0.0363883632    -7.6309572937
   37      C       2.9254055791    -0.0651360767    -6.6818386640
   38      C       3.5858996350    -0.0764160579    -7.9076689558
   39      C       3.5654920530    -0.0903074467    -5.4250507831
   40      C       4.9370705706    -0.1311960121    -5.3999178950
   41      H       5.4905523585    -0.1535785071    -4.4692915315
   42      C       1.3964612477    -0.0042065829    -8.9357896207
   43      H       0.7864738468     0.0208210030    -9.8300923182
   44      C       2.7671358372    -0.0438412702    -9.0639973639
   45      H       3.2191194563    -0.0494331989   -10.0484840806
   46      C       5.6369851606    -0.1445908842    -6.6300667337
   47      H       6.7188166966    -0.1771727008    -6.6058925419
   48      C       4.9998638899    -0.1182516071    -7.8506305878
   49      H       5.5797469850    -0.1298909092    -8.7655054544
   50      B      -1.2747159080     0.0542329294    -2.2376361000
   51      C       2.6740575707     0.0754063062     0.0272440597
   52      C       3.3383295146     1.3184332028     0.1559057099
   53      C       4.4914842043     1.4133742524     0.9032680002
   54      H       4.9717091845     2.3758549163     1.0323332128
   55      C       4.9992928973     0.2856111775     1.5681997605
   56      N       6.1251505673     0.4014282784     2.3529423447
   57      C       6.2285149121    -0.3386103756     3.5420032983
   58      C       7.4417958714    -0.9322857118     3.8900053553
   59      H       8.3002462245    -0.8448367975     3.2370839875
   60      C       7.5228224465    -1.6629461824     5.0607763810
   61      H       8.4562398931    -2.1390335359     5.3281848951
   62      C       6.4096062972    -1.7988085317     5.8830656923
   63      H       6.4815933245    -2.3718369393     6.7976604702
   64      C       5.2062002110    -1.1974235642     5.5346137129
   65      H       4.3437898930    -1.2887421860     6.1807458306
   66      C       5.1082976139    -0.4640053590     4.3670048993
   67      H       4.1814361624     0.0312217671     4.1070735628
   68      C       7.1557415593     1.2811353882     1.9836621458
   69      C       7.7730252740     2.0778534519     2.9494847651
   70      H       7.4561135158     2.0311719624     3.9831754727
   71      C       8.7661116861     2.9591653052     2.5644550813
   72      H       9.2343111030     3.5905895316     3.3071855062
   73      C       9.1488104853     3.0474217127     1.2305975394
   74      H       9.9253377728     3.7406104076     0.9363481970
   75      C       8.5367766370     2.2451568378     0.2752710313
   76      H       8.8424816419     2.3020668051    -0.7604868495
   77      C       7.5415314513     1.3591617969     0.6436659472
   78      H       7.0811210986     0.7166904071    -0.0959245620
   79      C       4.3473215119    -0.9532399626     1.4455129000
   80      H       4.7650049577    -1.8302766136     1.9249660352
   81      C       3.2127804317    -1.0639412701     0.6719844433
   82      C       2.5818319162    -2.4175831722     0.4876787917
   83      H       1.4941030627    -2.3235095895     0.4889061012
   84      H       2.8386589983    -3.0567619931     1.3352841322
   85      C       2.7701826028     2.5744191463    -0.4520888785
   86      H       2.2977544984     2.3448782669    -1.4081280740
   87      H       3.5857458337     3.2686516674    -0.6675601140
   88      C       3.0276875233    -3.0891760093    -0.8094594446
   89      H       2.7466392952    -2.4949205749    -1.6786578672
   90      H       2.5609744955    -4.0688242058    -0.9135056579
   91      H       4.1095018680    -3.2273658754    -0.8299914023
   92      C       1.7544544161     3.2581873384     0.4621427193
   93      H       0.9004802663     2.6112700863     0.6610261674
   94      H       1.3784244744     4.1706001577    -0.0013337606
   95      H       2.2033593825     3.5282124257     1.4189936882
   96      C      -2.6456856262     0.1847512624    -3.0267553836
   97      C      -3.4274654531    -0.9357213015    -3.3480669995
   98      C      -4.6079302061    -0.7965521147    -4.0707180632
   99      H      -5.2011721795    -1.6745598570    -4.3045138309
  100      C      -5.0270875519     0.4494896158    -4.5166038438
  101      C      -4.2664324677     1.5656589959    -4.1972773514
  102      H      -4.5810747132     2.5458120614    -4.5397929201
  103      C      -3.1005781658     1.4441326662    -3.4506250571
  104      N      -6.1959101142     0.5694908682    -5.3015702749
  105      C      -7.1018339120     1.6118382022    -5.0629830584
  106      C      -7.6960043346     2.3038463403    -6.1206154073
  107      H      -7.4542426367     2.0427724087    -7.1429381593
  108      C      -8.5942499365     3.3300210565    -5.8721399737
  109      H      -9.0430798293     3.8525959136    -6.7074865971
  110      C      -8.9032188950     3.7022714280    -4.5710974222
  111      H      -9.5986447349     4.5090818502    -4.3807418163
  112      C      -8.3037699652     3.0250880441    -3.5170975416
  113      H      -8.5353468841     3.2983907045    -2.4953738795
  114      C      -7.4197306306     1.9850173525    -3.7549487632
  115      H      -6.9710712216     1.4596773581    -2.9215777623
  116      C      -6.3532787944    -0.2678559939    -6.4184368903
  117      C      -5.2638445146    -0.5779223510    -7.2323217911
  118      H      -4.2895799166    -0.1629488587    -7.0075359894
  119      C      -5.4234658520    -1.4127406086    -8.3273915010
  120      H      -4.5664794967    -1.6426400758    -8.9476055253
  121      C      -6.6703588327    -1.9368135498    -8.6407098272
  122      H      -6.7934449433    -2.5821974565    -9.5004259728
  123      C      -7.7578977062    -1.6235327903    -7.8356947704
  124      H      -8.7352584935    -2.0310977345    -8.0612673870
  125      C      -7.6032414509    -0.8051510058    -6.7282727362
  126      H      -8.4562879228    -0.5812292354    -6.1000106706
  127      C      -2.9942330261    -2.3273863774    -2.9685704820
  128      H      -2.3437099418    -2.2961077311    -2.0918595467
  129      H      -3.8686229251    -2.9177905251    -2.6808510645
  130      C      -2.3679961168     2.7100341072    -3.0859010431
  131      H      -1.3045621924     2.5062334361    -2.9453299824
  132      H      -2.4374195955     3.4258408658    -3.9096543794
  133      C      -2.2702697653    -3.0295402847    -4.1153322427
  134      H      -1.3681796895    -2.4861675967    -4.3984904871
  135      H      -1.9766529918    -4.0421073223    -3.8351323223
  136      H      -2.9085381194    -3.0973305159    -4.9978749657
  137      C      -2.9343472173     3.3484136032    -1.8188781447
  138      H      -2.8702438511     2.6617869887    -0.9742969470
  139      H      -2.3853833543     4.2539946631    -1.5564286918
  140      H      -3.9833454391     3.6197095609    -1.9498309816
 ----------------------------------------------------------------

   14   -3084.8049526673      8.74e-09  Convergence criterion met
 Total energy in the final basis set =    -3084.8049526673

         TDDFT/TDA Excitation Energies
 ---------------------------------------------------

 Excited state   1: excitation energy (eV) =    1.6732
 Total energy for state  1:                 -3084.74346209 au
    Multiplicity: Triplet
    Trans. Mom.:  0.0000 X   0.0000 Y   0.0000 Z
    Strength   :     0.0000000000
    D(270) --> V(  1) amplitude =  0.9729

 Excited state   2: excitation energy (eV) =    1.7174
 Total energy for state  2:                 -3084.74184036 au
    Multiplicity: Singlet
    Trans. Mom.: -0.8626 X  -0.0463 Y  -0.4746 Z
    Strength   :     0.0408737610
    D(270) --> V(  1) amplitude =  0.9789

 Excited state   3: excitation energy (eV) =    2.2319
 Total energy for state  3:                 -3084.72293172 au
    Multiplicity: Triplet
    Trans. Mom.:  0.0000 X   0.0000 Y   0.0000 Z
    Strength   :     0.0000000000
    D(259) --> V(  2) amplitude = -0.2273
    D(267) --> V(  1) amplitude =  0.8646
    D(268) --> V(  1) amplitude =  0.2981

 Excited state   4: excitation energy (eV) =    2.4233
 Total energy for state  4:                 -3084.71589975 au
    Multiplicity: Triplet
    Trans. Mom.:  0.0000 X   0.0000 Y   0.0000 Z
    Strength   :     0.0000000000
    D(265) --> V(  2) amplitude = -0.4235
    D(267) --> V(  1) amplitude = -0.2636
    D(268) --> V(  1) amplitude =  0.7431

 Excited state   5: excitation energy (eV) =    2.4797
 Total energy for state  5:                 -3084.71382512 au
    Multiplicity: Triplet
    Trans. Mom.:  0.0000 X   0.0000 Y   0.0000 Z
    Strength   :     0.0000000000
    D(264) --> V(  1) amplitude =  0.2167
    D(265) --> V(  1) amplitude = -0.5645
    D(268) --> V(  2) amplitude =  0.4148
    D(269) --> V(  1) amplitude =  0.5657

 Excited state   6: excitation energy (eV) =    2.4963
 Total energy for state  6:                 -3084.71321454 au
    Multiplicity: Triplet
    Trans. Mom.:  0.0000 X   0.0000 Y   0.0000 Z
    Strength   :     0.0000000000
    D(265) --> V(  1) amplitude =  0.3960
    D(268) --> V(  2) amplitude = -0.3233
    D(269) --> V(  1) amplitude =  0.7717

 Excited state   7: excitation energy (eV) =    2.5079
 Total energy for state  7:                 -3084.71278923 au
    Multiplicity: Singlet
    Trans. Mom.: -0.2256 X   0.0267 Y  -0.2197 Z
    Strength   :     0.0061365507
    D(269) --> V(  1) amplitude =  0.9737

 Excited state   8: excitation energy (eV) =    2.7435
 Total energy for state  8:                 -3084.70413086 au
    Multiplicity: Triplet
    Trans. Mom.:  0.0000 X   0.0000 Y   0.0000 Z
    Strength   :     0.0000000000
    D(259) --> V(  1) amplitude =  0.6609
    D(267) --> V(  2) amplitude = -0.5441

 Excited state   9: excitation energy (eV) =    2.8962
 Total energy for state  9:                 -3084.69852047 au
    Multiplicity: Singlet
    Trans. Mom.: -0.2016 X  -0.0048 Y   0.3066 Z
    Strength   :     0.0095568685
    D(267) --> V(  1) amplitude =  0.8859
    D(268) --> V(  1) amplitude =  0.2901
    D(270) --> V(  2) amplitude = -0.2522

 Excited state  10: excitation energy (eV) =    2.9226
 Total energy for state 10:                 -3084.69754852 au
    Multiplicity: Singlet
    Trans. Mom.:  0.2473 X  -0.0259 Y  -0.2879 Z
    Strength   :     0.0103636812
    D(267) --> V(  1) amplitude =  0.2444
    D(270) --> V(  2) amplitude =  0.9618

 Excited state  11: excitation energy (eV) =    3.1117
 Total energy for state 11:                 -3084.69059963 au
    Multiplicity: Singlet
    Trans. Mom.: -1.9396 X   0.0245 Y   3.4626 Z
    Strength   :     1.2008578882
    D(267) --> V(  1) amplitude = -0.2844
    D(268) --> V(  1) amplitude =  0.9113

 Excited state  12: excitation energy (eV) =    3.2808
 Total energy for state 12:                 -3084.68438470 au
    Multiplicity: Singlet
    Trans. Mom.:  0.1238 X  -0.0566 Y  -0.5301 Z
    Strength   :     0.0240794588
    D(266) --> V(  1) amplitude = -0.9225

 ---------------------------------------------------
