 Q-Chem 5.1, Q-Chem, Inc., Pleasanton, CA (2018)
 Q-Chem 5.1.1 for Intel X86 EM64T Linux

User input:
--------------------------------------------------------------
$solvent
dielectric      1.0001
dielectric_infi 1.00009
$end

$rem
threads 8
jobtype	sp
method PBEh-3c
basis def2-mSVP
mem_static	1024
mem_total	14000
sym_ignore	true
cis_n_roots             2
cis_singlets            false
cis_triplets		true
rpa                     false
calc_soc 		true
cis_moments             true
cis_relaxed_density	true
solvent_method		pcm
$end

$pcm
StateSpecific   1
ChargeSeparation Excited
$end

$molecule
read utleopt_vac.mol
$end

--------------------------------------------------------------

   15   -3084.7752712455      6.46e-09  Convergence criterion met
 Total energy in the final basis set =    -3084.7752712455

         TDDFT/TDA Excitation Energies
 ---------------------------------------------------

 Excited state   1: excitation energy (eV) =    2.0842
 Total energy for state  1:                 -3084.69867833 au
    Multiplicity: Triplet
    Trans. Mom.:  0.0000 X   0.0000 Y   0.0000 Z
    Strength   :     0.0000000000
    D(270) --> V(  1) amplitude =  0.9473

 Excited state   2: excitation energy (eV) =    2.1985
 Total energy for state  2:                 -3084.69447819 au
    Multiplicity: Triplet
    Trans. Mom.:  0.0000 X   0.0000 Y   0.0000 Z
    Strength   :     0.0000000000
    D(267) --> V(  1) amplitude =  0.6103
    D(268) --> V(  1) amplitude = -0.6740

 ---------------------------------------------------

                    Orbital Energies (a.u.)
 --------------------------------------------------------------

 Alpha MOs
 -- Occupied --
-14.668 -14.667 -10.490 -10.490 -10.488 -10.488 -10.483 -10.481
-10.465 -10.465 -10.465 -10.465 -10.465 -10.465 -10.463 -10.463
-10.463 -10.463 -10.462 -10.462 -10.462 -10.462 -10.462 -10.462
-10.461 -10.460 -10.460 -10.460 -10.460 -10.460 -10.454 -10.452
-10.452 -10.452 -10.450 -10.450 -10.449 -10.449 -10.449 -10.449
-10.447 -10.447 -10.447 -10.446 -10.446 -10.446 -10.446 -10.446
-10.445 -10.445 -10.445 -10.445 -10.445 -10.444 -10.442 -10.442
-10.441 -10.441 -10.441 -10.439 -10.434 -10.434 -10.433 -10.433
-10.433 -10.433 -10.433 -10.432 -10.430 -10.429 -10.428 -10.428
-10.423 -10.419 -10.418 -10.417 -10.415 -10.415  -6.947  -6.938
 -1.084  -1.077  -1.015  -1.015  -0.962  -0.962  -0.958  -0.958
 -0.957  -0.956  -0.938  -0.937  -0.934  -0.933  -0.907  -0.898
 -0.888  -0.886  -0.866  -0.863  -0.854  -0.854  -0.852  -0.849
 -0.847  -0.847  -0.842  -0.840  -0.838  -0.834  -0.824  -0.820
 -0.818  -0.813  -0.812  -0.803  -0.798  -0.798  -0.789  -0.783
 -0.735  -0.731  -0.727  -0.721  -0.715  -0.714  -0.711  -0.709
 -0.697  -0.697  -0.697  -0.695  -0.689  -0.684  -0.680  -0.680
 -0.678  -0.674  -0.667  -0.666  -0.647  -0.645  -0.637  -0.635
 -0.629  -0.627  -0.604  -0.604  -0.597  -0.593  -0.593  -0.590
 -0.584  -0.583  -0.583  -0.576  -0.576  -0.561  -0.560  -0.553
 -0.552  -0.544  -0.543  -0.541  -0.540  -0.536  -0.528  -0.525
 -0.524  -0.520  -0.516  -0.513  -0.509  -0.507  -0.504  -0.502
 -0.501  -0.498  -0.497  -0.495  -0.495  -0.494  -0.494  -0.489
 -0.488  -0.487  -0.486  -0.485  -0.484  -0.483  -0.483  -0.483
 -0.481  -0.479  -0.479  -0.477  -0.475  -0.467  -0.466  -0.462
 -0.461  -0.455  -0.453  -0.449  -0.442  -0.440  -0.434  -0.434
 -0.433  -0.432  -0.430  -0.427  -0.427  -0.425  -0.424  -0.424
 -0.421  -0.419  -0.419  -0.415  -0.413  -0.410  -0.408  -0.404
 -0.403  -0.402  -0.399  -0.399  -0.397  -0.397  -0.396  -0.395
 -0.395  -0.394  -0.392  -0.392  -0.391  -0.385  -0.384  -0.382
 -0.378  -0.371  -0.367  -0.361  -0.355  -0.355  -0.350  -0.347
 -0.344  -0.334  -0.318  -0.313  -0.305  -0.300  -0.300  -0.297
 -0.296  -0.295  -0.295  -0.292  -0.284  -0.281  -0.279  -0.273
 -0.272  -0.261  -0.255  -0.253  -0.219  -0.212

          Ground-State Mulliken Net Atomic Charges

     Atom                 Charge (a.u.)
  ----------------------------------------
      1 C                    -0.146408
      2 C                    -0.386528
      3 H                     0.235118
      4 C                     0.107979
      5 C                     0.101735
      6 C                    -0.396042
      7 H                     0.231136
      8 C                    -0.148331
      9 C                     0.195082
     10 C                    -0.377599
     11 H                     0.218948
     12 C                    -0.068246
     13 C                     0.251247
     14 C                     0.204364
     15 C                    -0.382538
     16 H                     0.216152
     17 C                    -0.204586
     18 H                     0.226738
     19 C                    -0.332121
     20 H                     0.220868
     21 C                    -0.202001
     22 H                     0.225487
     23 C                    -0.335296
     24 H                     0.220802
     25 B                     0.630910
     26 C                    -0.148402
     27 C                    -0.393899
     28 H                     0.233988
     29 C                     0.115600
     30 C                     0.097271
     31 C                    -0.392526
     32 H                     0.231692
     33 C                    -0.149906
     34 C                     0.194923
     35 C                    -0.376720
     36 H                     0.217179
     37 C                    -0.065238
     38 C                     0.253654
     39 C                     0.199532
     40 C                    -0.384767
     41 H                     0.217994
     42 C                    -0.205099
     43 H                     0.226404
     44 C                    -0.331868
     45 H                     0.220795
     46 C                    -0.202484
     47 H                     0.225893
     48 C                    -0.336531
     49 H                     0.220883
     50 B                     0.653700
     51 C                    -0.243690
     52 C                     0.088610
     53 C                    -0.378177
     54 H                     0.239398
     55 C                     0.313188
     56 N                    -0.658603
     57 C                     0.270635
     58 C                    -0.269589
     59 H                     0.244896
     60 C                    -0.217415
     61 H                     0.221963
     62 C                    -0.234197
     63 H                     0.218253
     64 C                    -0.216032
     65 H                     0.218451
     66 C                    -0.261847
     67 H                     0.245555
     68 C                     0.272687
     69 C                    -0.270521
     70 H                     0.244813
     71 C                    -0.216731
     72 H                     0.221737
     73 C                    -0.234771
     74 H                     0.218148
     75 C                    -0.216118
     76 H                     0.220116
     77 C                    -0.264407
     78 H                     0.247369
     79 C                    -0.379793
     80 H                     0.237983
     81 C                     0.103580
     82 C                    -0.545977
     83 H                     0.250495
     84 H                     0.228667
     85 C                    -0.552895
     86 H                     0.255975
     87 H                     0.229794
     88 C                    -0.648771
     89 H                     0.245461
     90 H                     0.218850
     91 H                     0.217522
     92 C                    -0.647226
     93 H                     0.248131
     94 H                     0.216598
     95 H                     0.217261
     96 C                    -0.225808
     97 C                     0.072438
     98 C                    -0.338847
     99 H                     0.230124
    100 C                     0.290624
    101 C                    -0.345815
    102 H                     0.232913
    103 C                     0.067090
    104 N                    -0.674394
    105 C                     0.305994
    106 C                    -0.288716
    107 H                     0.246814
    108 C                    -0.212286
    109 H                     0.219233
    110 C                    -0.240324
    111 H                     0.216429
    112 C                    -0.212015
    113 H                     0.217929
    114 C                    -0.281323
    115 H                     0.240923
    116 C                     0.293637
    117 C                    -0.276612
    118 H                     0.239341
    119 C                    -0.213379
    120 H                     0.217604
    121 C                    -0.237866
    122 H                     0.217363
    123 C                    -0.214379
    124 H                     0.220014
    125 C                    -0.276232
    126 H                     0.245782
    127 C                    -0.548939
    128 H                     0.251682
    129 H                     0.231114
    130 C                    -0.550430
    131 H                     0.254287
    132 H                     0.231713
    133 C                    -0.644544
    134 H                     0.238059
    135 H                     0.219454
    136 H                     0.219255
    137 C                    -0.643267
    138 H                     0.240477
    139 H                     0.217977
    140 H                     0.218590
  ----------------------------------------
  Sum of atomic charges =    -0.000000

                    Cartesian Multipole Moments
 -----------------------------------------------------------------
    Charge (ESU x 10^10)
                -0.0000
    Dipole Moment (Debye)
         X       0.9029      Y      -0.0293      Z       0.4775
       Tot       1.0218
    Quadrupole Moments (Debye-Ang)
        XX    -420.1693     XY       1.6788     YY    -464.1832
        XZ     -12.4020     YZ      -0.6643     ZZ    -403.1301

 Total job time:  17244.77s(wall), 48618.72s(cpu)
        *  Thank you very much for using Q-Chem.  Have a nice day.  *
 Q-Chem 5.1, Q-Chem, Inc., Pleasanton, CA (2018)
 Q-Chem 5.1.1 for Intel X86 EM64T Linux

User input:
--------------------------------------------------------------
$rem
threads 8
jobtype sp
method PBEh-3c
basis def2-mSVP
mem_static      1024
mem_total       14000
sym_ignore      true
cis_n_roots             6
cis_singlets            true
cis_triplets            true
rpa                     false
calc_soc                true
cis_moments             true
cis_relaxed_density     true
solvent_method          pcm
$end

$molecule
read
$end

$pcm
statespecific           Marcus
$end

$solvent
dielectric      1.0001
dielectric_infi 1.00009
$end

--------------------------------------------------------------

             Standard Nuclear Orientation (Angstroms)
    I     Atom           X                Y                Z
 ----------------------------------------------------------------
    1      C       0.0000000000     0.0000000000     0.0000000000
    2      C       0.0000000000     0.0000000000     1.4152070000
    3      H       0.9413365020     0.0000000000     1.9571086293
    4      C      -1.1757852286    -0.0025719621     2.1154904012
    5      C      -2.4196073025     0.0038899001     1.4153954311
    6      C      -2.4425762183     0.0221902279     0.0412702215
    7      H      -3.3915265776     0.0374354512    -0.4861195011
    8      C      -1.2460274047     0.0222307614    -0.6991055737
    9      C      -3.4923893588    -0.0053167142     2.4005564727
   10      C      -4.8644842790    -0.0092503361     2.3447987032
   11      H      -5.3962969026    -0.0031404590     1.4013851307
   12      C      -2.8704771162    -0.0157682883     3.6663079852
   13      C      -3.5637593303    -0.0299864609     4.8737164180
   14      C      -1.4657353322    -0.0139823953     3.5505789099
   15      C      -0.7225536192    -0.0252777972     4.7034391840
   16      H       0.3604236734    -0.0246150174     4.6830718802
   17      C      -5.5918987902    -0.0230779030     3.5563312729
   18      H      -6.6736326798    -0.0265822730     3.5091502026
   19      C      -4.9781967628    -0.0331544460     4.7873384119
   20      H      -5.5776002699    -0.0444961481     5.6895134911
   21      C      -1.3972416111    -0.0391726408     5.9458210337
   22      H      -0.8083782085    -0.0482226893     6.8543812858
   23      C      -2.7695922604    -0.0417300820     6.0447199033
   24      H      -3.2409476932    -0.0532248643     7.0199783244
   25      B       1.3036350301     0.0084980578    -0.7922130631
   26      C       1.3065338860    -0.0015628392    -2.3176461311
   27      C       2.5124720291    -0.0242117977    -3.0579926505
   28      H       3.4652917501    -0.0502372769    -2.5358668003
   29      C       2.4932695434    -0.0133215770    -4.4294749957
   30      C       1.2453409256     0.0250004423    -5.1159530207
   31      C       0.0638599279     0.0422019332    -4.4155636574
   32      H      -0.8828647637     0.0729545712    -4.9451364829
   33      C       0.0580414098     0.0258949850    -3.0096402636
   34      C       1.5110337053     0.0409811544    -6.5479363505
   35      C       0.7355540795     0.0824506597    -7.6791947970
   36      H      -0.3459011122     0.1112775059    -7.6276618786
   37      C       2.9114954296     0.0071477584    -6.6923170993
   38      C       3.5679045353     0.0104217523    -7.9189173774
   39      C       3.5541213796    -0.0289633380    -5.4384932584
   40      C       4.9239509380    -0.0682768133    -5.4183919109
   41      H       5.4790736058    -0.1013430109    -4.4890900436
   42      C       1.3774148650     0.0890573519    -8.9384143551
   43      H       0.7646305141     0.1232299270    -9.8303344140
   44      C       2.7459365938     0.0537782357    -9.0713328759
   45      H       3.1941081310     0.0599978248   -10.0573857052
   46      C       5.6211568356    -0.0679070601    -6.6487831541
   47      H       6.7030670761    -0.1004438750    -6.6289536637
   48      C       4.9805916793    -0.0292783856    -7.8654227334
   49      H       5.5583368315    -0.0305960617    -8.7816122492
   50      B      -1.2761788759     0.0605562267    -2.2368735848
   51      C       2.6552636062     0.1234346263     0.0084863901
   52      C       3.3205490600     1.3814008695     0.0931555823
   53      C       4.4729348507     1.5011450841     0.8263732870
   54      H       4.9525824684     2.4677388538     0.9191999380
   55      C       4.9901355254     0.3979453899     1.5374697455
   56      N       6.1142935317     0.5431985914     2.3031051584
   57      C       6.2720277809    -0.2101109479     3.4858257929
   58      C       7.4967496110    -0.8025491116     3.7784511293
   59      H       8.3270867960    -0.6994795417     3.0922922926
   60      C       7.6327366973    -1.5382786029     4.9420101597
   61      H       8.5796091272    -2.0097731969     5.1668850397
   62      C       6.5589608138    -1.6844836526     5.8103885447
   63      H       6.6716846617    -2.2636886886     6.7166775589
   64      C       5.3425316081    -1.0843627685     5.5171177652
   65      H       4.5071892979    -1.1849716534     6.1965070196
   66      C       5.1946118342    -0.3409194386     4.3601036512
   67      H       4.2540260701     0.1469488053     4.1378548450
   68      C       7.1149672292     1.4694676859     1.9384037150
   69      C       7.6819995130     2.3024433165     2.8994499306
   70      H       7.3535927299     2.2482019925     3.9292662783
   71      C       8.6490001467     3.2167095509     2.5211250512
   72      H       9.0802628840     3.8732437010     3.2644363094
   73      C       9.0523010554     3.3047281103     1.1953695008
   74      H       9.8051333339     4.0248860223     0.9052717011
   75      C       8.4896446417     2.4665350569     0.2434266874
   76      H       8.8073578490     2.5239570633    -0.7886700905
   77      C       7.5260834550     1.5437909713     0.6091911130
   78      H       7.0975280265     0.8788682700    -0.1297288056
   79      C       4.3328734822    -0.8495875833     1.4649661581
   80      H       4.7546781741    -1.7051953641     1.9776455396
   81      C       3.2041580014    -0.9960679127     0.7000538458
   82      C       2.5684359415    -2.3504971207     0.5626521606
   83      H       1.4834909724    -2.2531636507     0.6350730370
   84      H       2.8818452775    -2.9840933851     1.3959471101
   85      C       2.7319819943     2.6091887213    -0.5467181817
   86      H       2.2919470236     2.3495565006    -1.5098997770
   87      H       3.5324922241     3.3248295972    -0.7506811308
   88      C       2.9251968301    -3.0277266113    -0.7596930913
   89      H       2.5792750496    -2.4443221413    -1.6118367584
   90      H       2.4526109875    -4.0075803807    -0.8207621514
   91      H       4.0025614598    -3.1674596852    -0.8568698876
   92      C       1.6704265054     3.2702987853     0.3332872773
   93      H       0.8305491273     2.6016788713     0.5162473834
   94      H       1.2804261511     4.1626348037    -0.1556998358
   95      H       2.0831050795     3.5692475847     1.2978335684
   96      C      -2.6490649580     0.1662283275    -3.0202073590
   97      C      -3.4261261865    -0.9671616162    -3.3018188538
   98      C      -4.6133575314    -0.8539686355    -4.0156033543
   99      H      -5.2049419506    -1.7396482323    -4.2212716440
  100      C      -5.0420993968     0.3764068175    -4.4919781815
  101      C      -4.2837914910     1.5044163220    -4.2144921540
  102      H      -4.6094524038     2.4713559048    -4.5826119618
  103      C      -3.1110784248     1.4105849104    -3.4767273643
  104      N      -6.2192013538     0.4704218713    -5.2685183902
  105      C      -7.1312383299     1.5083736225    -5.0402901854
  106      C      -7.7552316896     2.1632782897    -6.1035468148
  107      H      -7.5302341791     1.8727070459    -7.1214459394
  108      C      -8.6590604669     3.1849909055    -5.8648911206
  109      H      -9.1315328230     3.6787259496    -6.7045087205
  110      C      -8.9443672264     3.5907603050    -4.5698572255
  111      H      -9.6447105828     4.3948553407    -4.3876294027
  112      C      -8.3145432651     2.9519790643    -3.5113779958
  113      H      -8.5266129738     3.2532309118    -2.4934850775
  114      C      -7.4242352683     1.9165079782    -3.7377860446
  115      H      -6.9472669215     1.4204568786    -2.9027247889
  116      C      -6.3917119180    -0.4055654790    -6.3504297125
  117      C      -5.3085419948    -0.7643720597    -7.1520550085
  118      H      -4.3291230114    -0.3562653736    -6.9394081279
  119      C      -5.4816451496    -1.6390143779    -8.2114638635
  120      H      -4.6285561589    -1.9069744703    -8.8213892725
  121      C      -6.7348691450    -2.1568697962    -8.5036947503
  122      H      -6.8678228277    -2.8344755731    -9.3363934239
  123      C      -7.8155958413    -1.7958281046    -7.7120164819
  124      H      -8.7987580367    -2.1981327786    -7.9204240954
  125      C      -7.6488444370    -0.9371586037    -6.6390441677
  126      H      -8.4963176900    -0.6747754839    -6.0187825665
  127      C      -2.9746219292    -2.3445726032    -2.8943764092
  128      H      -2.3346517966    -2.2896617198    -2.0112618117
  129      H      -3.8425497536    -2.9438026030    -2.6050528095
  130      C      -2.3778668167     2.6876641550    -3.1566743225
  131      H      -1.3069794862     2.4978431337    -3.0599646044
  132      H      -2.4885859666     3.3906446917    -3.9870454567
  133      C      -2.2271568828    -3.0504830507    -4.0235013451
  134      H      -1.3286302310    -2.4990921562    -4.3011849591
  135      H      -1.9233270125    -4.0558086594    -3.7283352830
  136      H      -2.8529392700    -3.1366125009    -4.9131257074
  137      C      -2.8996175197     3.3363317118    -1.8760518089
  138      H      -2.7720790459     2.6724318050    -1.0209357604
  139      H      -3.9616149457     3.5721843561    -1.9600519847
  140      H      -2.3676110320     4.2642161814    -1.6599562132
 ----------------------------------------------------------------
