 Q-Chem 5.1, Q-Chem, Inc., Pleasanton, CA (2018)
 Q-Chem 5.1.1 for Intel X86 EM64T Linux

User input:
--------------------------------------------------------------
$solvent
dielectric      2.38
dielectric_infi 2.25
$end

$rem
threads 8
jobtype	sp
method PBEh-3c
basis def2-mSVP
mem_static	1024
mem_total	14000
sym_ignore	true
cis_n_roots             2
cis_singlets            false
cis_triplets		true
rpa                     false
calc_soc 		true
cis_moments             true
cis_relaxed_density	true
solvent_method		pcm
$end

$pcm
StateSpecific   1
ChargeSeparation Excited
$end

$molecule
read utleopt_tol.mol
$end

--------------------------------------------------------------

   14   -3084.7987752086      8.09e-09  Convergence criterion met
 Total energy in the final basis set =    -3084.7987752086

                    Orbital Energies (a.u.)
 --------------------------------------------------------------

 Alpha MOs
 -- Occupied --
-14.670 -14.670 -10.492 -10.492 -10.492 -10.491 -10.486 -10.485
-10.466 -10.466 -10.466 -10.466 -10.466 -10.466 -10.465 -10.465
-10.465 -10.465 -10.464 -10.464 -10.463 -10.463 -10.463 -10.463
-10.462 -10.462 -10.459 -10.459 -10.459 -10.459 -10.457 -10.455
-10.455 -10.455 -10.452 -10.452 -10.450 -10.450 -10.450 -10.450
-10.449 -10.449 -10.449 -10.449 -10.448 -10.448 -10.447 -10.447
-10.447 -10.447 -10.447 -10.447 -10.445 -10.445 -10.445 -10.444
-10.444 -10.444 -10.443 -10.441 -10.438 -10.437 -10.437 -10.436
-10.436 -10.436 -10.434 -10.434 -10.433 -10.432 -10.432 -10.431
-10.426 -10.420 -10.420 -10.420 -10.419 -10.418  -6.950  -6.943
 -1.087  -1.080  -1.017  -1.017  -0.964  -0.963  -0.961  -0.960
 -0.960  -0.958  -0.940  -0.940  -0.934  -0.934  -0.909  -0.900
 -0.890  -0.889  -0.869  -0.866  -0.857  -0.856  -0.853  -0.851
 -0.848  -0.847  -0.843  -0.841  -0.840  -0.837  -0.826  -0.822
 -0.820  -0.815  -0.813  -0.805  -0.801  -0.800  -0.792  -0.786
 -0.737  -0.732  -0.728  -0.722  -0.717  -0.717  -0.713  -0.711
 -0.700  -0.700  -0.699  -0.697  -0.690  -0.684  -0.682  -0.681
 -0.680  -0.675  -0.669  -0.668  -0.649  -0.647  -0.638  -0.637
 -0.631  -0.630  -0.606  -0.605  -0.597  -0.595  -0.592  -0.589
 -0.587  -0.585  -0.583  -0.576  -0.576  -0.562  -0.562  -0.555
 -0.554  -0.545  -0.544  -0.543  -0.542  -0.538  -0.528  -0.526
 -0.525  -0.522  -0.518  -0.514  -0.511  -0.509  -0.505  -0.502
 -0.502  -0.500  -0.498  -0.497  -0.496  -0.496  -0.495  -0.491
 -0.489  -0.489  -0.487  -0.486  -0.486  -0.486  -0.485  -0.484
 -0.483  -0.481  -0.478  -0.478  -0.476  -0.469  -0.466  -0.465
 -0.462  -0.456  -0.455  -0.451  -0.443  -0.441  -0.437  -0.436
 -0.436  -0.434  -0.433  -0.429  -0.429  -0.428  -0.427  -0.427
 -0.422  -0.421  -0.420  -0.417  -0.413  -0.412  -0.409  -0.406
 -0.404  -0.404  -0.400  -0.399  -0.399  -0.398  -0.397  -0.397
 -0.396  -0.395  -0.394  -0.393  -0.392  -0.387  -0.386  -0.385
 -0.380  -0.374  -0.369  -0.365  -0.358  -0.358  -0.353  -0.351
 -0.347  -0.337  -0.321  -0.316  -0.307  -0.304  -0.302  -0.300
 -0.298  -0.297  -0.296  -0.296  -0.287  -0.284  -0.282  -0.277
 -0.275  -0.263  -0.258  -0.256  -0.223  -0.215

          Ground-State Mulliken Net Atomic Charges

     Atom                 Charge (a.u.)
  ----------------------------------------
      1 C                    -0.146841
      2 C                    -0.390008
      3 H                     0.245294
      4 C                     0.096244
      5 C                     0.090215
      6 C                    -0.398477
      7 H                     0.242379
      8 C                    -0.149619
      9 C                     0.183014
     10 C                    -0.385767
     11 H                     0.241639
     12 C                    -0.069775
     13 C                     0.229959
     14 C                     0.190837
     15 C                    -0.390940
     16 H                     0.240303
     17 C                    -0.224107
     18 H                     0.247697
     19 C                    -0.341501
     20 H                     0.244228
     21 C                    -0.221965
     22 H                     0.247053
     23 C                    -0.344399
     24 H                     0.244194
     25 B                     0.631783
     26 C                    -0.146697
     27 C                    -0.397838
     28 H                     0.244981
     29 C                     0.103922
     30 C                     0.085590
     31 C                    -0.395501
     32 H                     0.243127
     33 C                    -0.152142
     34 C                     0.182630
     35 C                    -0.384947
     36 H                     0.240710
     37 C                    -0.067161
     38 C                     0.232406
     39 C                     0.186286
     40 C                    -0.392539
     41 H                     0.241271
     42 C                    -0.224627
     43 H                     0.247465
     44 C                    -0.341242
     45 H                     0.244180
     46 C                    -0.222255
     47 H                     0.247103
     48 C                    -0.345503
     49 H                     0.244309
     50 B                     0.651586
     51 C                    -0.243340
     52 C                     0.079540
     53 C                    -0.383796
     54 H                     0.248472
     55 C                     0.308655
     56 N                    -0.655626
     57 C                     0.271570
     58 C                    -0.284105
     59 H                     0.257674
     60 C                    -0.235486
     61 H                     0.241025
     62 C                    -0.254459
     63 H                     0.236534
     64 C                    -0.234622
     65 H                     0.239214
     66 C                    -0.276543
     67 H                     0.259284
     68 C                     0.272353
     69 C                    -0.283941
     70 H                     0.257448
     71 C                    -0.235078
     72 H                     0.240933
     73 C                    -0.254763
     74 H                     0.236503
     75 C                    -0.234321
     76 H                     0.240019
     77 C                    -0.278233
     78 H                     0.259986
     79 C                    -0.384721
     80 H                     0.247628
     81 C                     0.092402
     82 C                    -0.548648
     83 H                     0.250865
     84 H                     0.237721
     85 C                    -0.554484
     86 H                     0.254863
     87 H                     0.238627
     88 C                    -0.657049
     89 H                     0.241845
     90 H                     0.224953
     91 H                     0.221126
     92 C                    -0.656474
     93 H                     0.243665
     94 H                     0.223867
     95 H                     0.220978
     96 C                    -0.224149
     97 C                     0.064321
     98 C                    -0.348297
     99 H                     0.240780
    100 C                     0.291481
    101 C                    -0.353423
    102 H                     0.242607
    103 C                     0.057672
    104 N                    -0.673087
    105 C                     0.305647
    106 C                    -0.300587
    107 H                     0.256758
    108 C                    -0.231214
    109 H                     0.238832
    110 C                    -0.260148
    111 H                     0.235669
    112 C                    -0.231017
    113 H                     0.238065
    114 C                    -0.294893
    115 H                     0.253489
    116 C                     0.292841
    117 C                    -0.290599
    118 H                     0.252604
    119 C                    -0.232698
    120 H                     0.238245
    121 C                    -0.256926
    122 H                     0.236732
    123 C                    -0.233180
    124 H                     0.239605
    125 C                    -0.287345
    126 H                     0.256535
    127 C                    -0.550064
    128 H                     0.252008
    129 H                     0.239550
    130 C                    -0.551852
    131 H                     0.254702
    132 H                     0.240152
    133 C                    -0.653075
    134 H                     0.236064
    135 H                     0.225450
    136 H                     0.222218
    137 C                    -0.652484
    138 H                     0.237908
    139 H                     0.224879
    140 H                     0.221602
  ----------------------------------------
  Sum of atomic charges =    -0.000000

                    Cartesian Multipole Moments
 -----------------------------------------------------------------
    Charge (ESU x 10^10)
                -0.0000
    Dipole Moment (Debye)
         X       0.8590      Y      -0.0409      Z       0.3884
       Tot       0.9436
    Quadrupole Moments (Debye-Ang)
        XX    -411.4459     XY       1.5418     YY    -461.7669
        XZ     -14.8812     YZ      -0.7790     ZZ    -389.5270

 Total job time:  18477.20s(wall), 55865.58s(cpu)
        *  Thank you very much for using Q-Chem.  Have a nice day.  *
 Q-Chem 5.1, Q-Chem, Inc., Pleasanton, CA (2018)
 Q-Chem 5.1.1 for Intel X86 EM64T Linux

User input:
--------------------------------------------------------------
$rem
threads 8
jobtype sp
method PBEh-3c
basis def2-mSVP
mem_static      1024
mem_total       14000
sym_ignore      true
cis_n_roots             6
cis_singlets            true
cis_triplets            true
rpa                     false
calc_soc                true
cis_moments             true
cis_relaxed_density     true
solvent_method          pcm
$end

$molecule
read
$end

$pcm
statespecific           Marcus
$end

$solvent
dielectric      2.38
dielectric_infi 2.25
$end

--------------------------------------------------------------

             Standard Nuclear Orientation (Angstroms)
    I     Atom           X                Y                Z
 ----------------------------------------------------------------
    1      C       0.0000000000     0.0000000000     0.0000000000
    2      C       0.0000000000     0.0000000000     1.4140360000
    3      H       0.9421223658     0.0000000000     1.9539007548
    4      C      -1.1768411130     0.0005840068     2.1152966919
    5      C      -2.4211403138     0.0091193193     1.4148279667
    6      C      -2.4443010906     0.0250693478     0.0411017759
    7      H      -3.3944931411     0.0423597491    -0.4841640234
    8      C      -1.2463961358     0.0206626526    -0.6997640583
    9      C      -3.4949946381     0.0054039337     2.4004776954
   10      C      -4.8676141806     0.0072353200     2.3443216344
   11      H      -5.3999326579     0.0136504180     1.4009783982
   12      C      -2.8724563899    -0.0041416312     3.6661470286
   13      C      -3.5659235824    -0.0119085784     4.8741664165
   14      C      -1.4669322990    -0.0065343158     3.5502300158
   15      C      -0.7230327175    -0.0161417930     4.7036707780
   16      H       0.3599496787    -0.0179982371     4.6840340434
   17      C      -5.5951447790    -0.0002464346     3.5566777547
   18      H      -6.6770127647     0.0007729449     3.5094915822
   19      C      -4.9809488824    -0.0094875964     4.7882475189
   20      H      -5.5800435409    -0.0154310046     5.6908318575
   21      C      -1.3985813629    -0.0240784038     5.9464203716
   22      H      -0.8091450523    -0.0317515668     6.8546741816
   23      C      -2.7716232733    -0.0222693765     6.0460364788
   24      H      -3.2431088280    -0.0289403850     7.0213791152
   25      B       1.3098932390    -0.0042301842    -0.7859616967
   26      C       1.3093156258    -0.0192495183    -2.3124967028
   27      C       2.5157294490    -0.0483100679    -3.0512290210
   28      H       3.4665570349    -0.0767328733    -2.5263240370
   29      C       2.4991703857    -0.0393800447    -4.4235600684
   30      C       1.2513377167     0.0048460513    -5.1126020041
   31      C       0.0688049038     0.0304237859    -4.4141166835
   32      H      -0.8757074440     0.0654084722    -4.9476127441
   33      C       0.0603817898     0.0152452194    -3.0072077715
   34      C       1.5190582808     0.0166080274    -6.5444570457
   35      C       0.7446540522     0.0592361984    -7.6776124085
   36      H      -0.3369256617     0.0931480314    -7.6281515749
   37      C       2.9201005464    -0.0245849869    -6.6862554271
   38      C       3.5785539272    -0.0273414161    -7.9124838784
   39      C       3.5611404766    -0.0614119326    -5.4308409968
   40      C       4.9317737301    -0.1071626440    -5.4085963581
   41      H       5.4859875634    -0.1401991643    -4.4787092135
   42      C       1.3889527696     0.0597429440    -8.9360428354
   43      H       0.7776651968     0.0947278644    -9.8291046466
   44      C       2.7584434130     0.0174087194    -9.0668215548
   45      H       3.2085037543     0.0191601749   -10.0521615211
   46      C       5.6303335902    -0.1128829347    -6.6388444146
   47      H       6.7121229509    -0.1501262498    -6.6170330128
   48      C       4.9917219202    -0.0740040375    -7.8574242538
   49      H       5.5706013365    -0.0800743273    -8.7729812826
   50      B      -1.2741891744     0.0556965282    -2.2370067373
   51      C       2.6674448550     0.0768018690     0.0183667789
   52      C       3.3416069202     1.3210540075     0.1361012574
   53      C       4.4991835279     1.4115165392     0.8707575849
   54      H       4.9870764620     2.3712796067     0.9894220427
   55      C       5.0084643324     0.2833735920     1.5425652768
   56      N       6.1395183357     0.3955299358     2.3085385471
   57      C       6.2828623904    -0.3779559301     3.4767908144
   58      C       7.5047469397    -0.9801679050     3.7685336142
   59      H       8.3414677854    -0.8718902126     3.0908690342
   60      C       7.6257960630    -1.7389713196     4.9183566716
   61      H       8.5678818688    -2.2202395228     5.1426010398
   62      C       6.5421786766    -1.8957181352     5.7742174545
   63      H       6.6444333913    -2.4918489201     6.6708732878
   64      C       5.3296005476    -1.2853569403     5.4818210747
   65      H       4.4886519965    -1.3940103669     6.1530249213
   66      C       5.1939970538    -0.5216329123     4.3369751156
   67      H       4.2582321314    -0.0231229764     4.1181340261
   68      C       7.1548811131     1.3044904822     1.9504130438
   69      C       7.7534347252     2.1025596268     2.9240112736
   70      H       7.4375721976     2.0344770077     3.9568965650
   71      C       8.7319289373     3.0060596346     2.5507905501
   72      H       9.1870473741     3.6377968750     3.3013529903
   73      C       9.1169139531     3.1150346898     1.2200621807
   74      H       9.8806547402     3.8258459777     0.9348899715
   75      C       8.5234460444     2.3104678165     0.2565744549
   76      H       8.8291443664     2.3839659726    -0.7781228297
   77      C       7.5449666561     1.4010626296     0.6148943222
   78      H       7.0954276580     0.7595359364    -0.1322343457
   79      C       4.3424826385    -0.9540677495     1.4345280320
   80      H       4.7583699052    -1.8298884477     1.9174612257
   81      C       3.2052134208    -1.0645506306     0.6708108557
   82      C       2.5597376661    -2.4119420013     0.4996122090
   83      H       1.4737441866    -2.3080503550     0.5369407044
   84      H       2.8391792590    -3.0567948705     1.3360583599
   85      C       2.7706213912     2.5735557706    -0.4737534481
   86      H       2.3126704865     2.3423595481    -1.4361397887
   87      H       3.5835231324     3.2752177603    -0.6761647379
   88      C       2.9561360450    -3.0800838529    -0.8155389029
   89      H       2.6450271897    -2.4841795066    -1.6727915151
   90      H       2.4794608205    -4.0560830319    -0.9043890502
   91      H       4.0355475175    -3.2256029903    -0.8764296476
   92      C       1.7359115539     3.2438701368     0.4297207205
   93      H       0.8797368617     2.5939862018     0.6059517239
   94      H       1.3654556563     4.1579569833    -0.0342049269
   95      H       2.1655427676     3.5084154450     1.3969929739
   96      C      -2.6473036195     0.1655682266    -3.0228246681
   97      C      -3.4242730269    -0.9664004599    -3.3124540135
   98      C      -4.6123482911    -0.8495904770    -4.0255230560
   99      H      -5.2028233338    -1.7350834352    -4.2362599197
  100      C      -5.0426351223     0.3838104140    -4.4933590180
  101      C      -4.2847852892     1.5105653482    -4.2085462274
  102      H      -4.6099174022     2.4803477883    -4.5700344926
  103      C      -3.1111775210     1.4125041695    -3.4714762049
  104      N      -6.2208359332     0.4816167305    -5.2686044124
  105      C      -7.1350174388     1.5159067246    -5.0306259375
  106      C      -7.7566519776     2.1839595930    -6.0875950430
  107      H      -7.5294609224     1.9082477885    -7.1092746726
  108      C      -8.6619923309     3.2028734853    -5.8387479046
  109      H      -9.1320867486     3.7068246766    -6.6737869584
  110      C      -8.9513722120     3.5925028778    -4.5389480746
  111      H      -9.6526100543     4.3941532374    -4.3485909682
  112      C      -8.3240353021     2.9402450184    -3.4863024057
  113      H      -8.5389573693     3.2282732321    -2.4650462583
  114      C      -7.4323152297     1.9074926378    -3.7234794063
  115      H      -6.9590982014     1.4017831910    -2.8918053490
  116      C      -6.3841814396    -0.3762597235    -6.3672419572
  117      C      -5.2974533620    -0.7084559186    -7.1758813728
  118      H      -4.3215030384    -0.2942282861    -6.9581545517
  119      C      -5.4621632652    -1.5645340271    -8.2527042169
  120      H      -4.6065642921    -1.8116295816    -8.8681152538
  121      C      -6.7108907810    -2.0894742421    -8.5543582896
  122      H      -6.8375713372    -2.7521210896    -9.4001932028
  123      C      -7.7953368952    -1.7549959210    -7.7548566358
  124      H      -8.7746053022    -2.1632938470    -7.9704663004
  125      C      -7.6363438858    -0.9152067412    -6.6650298071
  126      H      -8.4869105215    -0.6746452381    -6.0398449962
  127      C      -2.9740105544    -2.3466067392    -2.9123987653
  128      H      -2.3284763425    -2.2958430335    -2.0331075896
  129      H      -3.8418941711    -2.9448830837    -2.6210478924
  130      C      -2.3796408189     2.6890372617    -3.1444701113
  131      H      -1.3097905949     2.4983528717    -3.0388740563
  132      H      -2.4844177565     3.3935438132    -3.9743056528
  133      C      -2.2340889509    -3.0510456336    -4.0475587128
  134      H      -1.3356885648    -2.5006325722    -4.3281177415
  135      H      -1.9308235685    -4.0576522912    -3.7561166060
  136      H      -2.8648763243    -3.1335492288    -4.9341758266
  137      C      -2.9100102682     3.3367640749    -1.8666704707
  138      H      -2.7905301342     2.6706126567    -1.0120039525
  139      H      -2.3763567494     4.2622732602    -1.6447997368
  140      H      -3.9708098918     3.5759706005    -1.9583839180
 ----------------------------------------------------------------

   14   -3084.7982856389      8.06e-09  Convergence criterion met
 Total energy in the final basis set =    -3084.7982856389

         TDDFT/TDA Excitation Energies
 ---------------------------------------------------

 Excited state   1: excitation energy (eV) =    2.0936
 Total energy for state  1:                 -3084.72134556 au
    Multiplicity: Triplet
    Trans. Mom.:  0.0000 X   0.0000 Y   0.0000 Z
    Strength   :     0.0000000000
    D(270) --> V(  1) amplitude =  0.9565

 Excited state   2: excitation energy (eV) =    2.1443
 Total energy for state  2:                 -3084.71948444 au
    Multiplicity: Singlet
    Trans. Mom.:  0.8158 X   0.0412 Y   0.4102 Z
    Strength   :     0.0438923545
    D(270) --> V(  1) amplitude =  0.9735

 Excited state   3: excitation energy (eV) =    2.2080
 Total energy for state  3:                 -3084.71714375 au
    Multiplicity: Triplet
    Trans. Mom.:  0.0000 X   0.0000 Y   0.0000 Z
    Strength   :     0.0000000000
    D(267) --> V(  1) amplitude =  0.7745
    D(268) --> V(  1) amplitude =  0.4877

 Excited state   4: excitation energy (eV) =    2.4266
 Total energy for state  4:                 -3084.70910792 au
    Multiplicity: Triplet
    Trans. Mom.:  0.0000 X   0.0000 Y   0.0000 Z
    Strength   :     0.0000000000
    D(266) --> V(  2) amplitude =  0.4640
    D(267) --> V(  1) amplitude = -0.4417
    D(268) --> V(  1) amplitude =  0.6679

 Excited state   5: excitation energy (eV) =    2.4705
 Total energy for state  5:                 -3084.70749642 au
    Multiplicity: Triplet
    Trans. Mom.:  0.0000 X   0.0000 Y   0.0000 Z
    Strength   :     0.0000000000
    D(266) --> V(  1) amplitude =  0.3255
    D(269) --> V(  1) amplitude =  0.8622

 Excited state   6: excitation energy (eV) =    2.4928
 Total energy for state  6:                 -3084.70667625 au
    Multiplicity: Triplet
    Trans. Mom.:  0.0000 X   0.0000 Y   0.0000 Z
    Strength   :     0.0000000000
    D(266) --> V(  1) amplitude =  0.6631
    D(266) --> V(  4) amplitude =  0.2136
    D(268) --> V(  2) amplitude =  0.4649
    D(269) --> V(  1) amplitude = -0.4114

 Excited state   7: excitation energy (eV) =    2.4939
 Total energy for state  7:                 -3084.70663617 au
    Multiplicity: Singlet
    Trans. Mom.:  0.3170 X  -0.0261 Y   0.2481 Z
    Strength   :     0.0099412684
    D(269) --> V(  1) amplitude =  0.9734

 Excited state   8: excitation energy (eV) =    2.7295
 Total energy for state  8:                 -3084.69797941 au
    Multiplicity: Triplet
    Trans. Mom.:  0.0000 X   0.0000 Y   0.0000 Z
    Strength   :     0.0000000000
    D(261) --> V(  1) amplitude =  0.2642
    D(262) --> V(  1) amplitude =  0.4776
    D(263) --> V(  1) amplitude = -0.4436
    D(267) --> V(  2) amplitude = -0.5178

 Excited state   9: excitation energy (eV) =    2.8696
 Total energy for state  9:                 -3084.69282845 au
    Multiplicity: Singlet
    Trans. Mom.:  0.2064 X   0.0141 Y  -0.3801 Z
    Strength   :     0.0131672709
    D(267) --> V(  1) amplitude =  0.8276
    D(268) --> V(  1) amplitude =  0.5040

 Excited state  10: excitation energy (eV) =    3.1099
 Total energy for state 10:                 -3084.68399927 au
    Multiplicity: Singlet
    Trans. Mom.:  1.9764 X  -0.0147 Y  -3.5541 Z
    Strength   :     1.2600158120
    D(267) --> V(  1) amplitude = -0.4984
    D(268) --> V(  1) amplitude =  0.8170

 Excited state  11: excitation energy (eV) =    3.3858
 Total energy for state 11:                 -3084.67385866 au
    Multiplicity: Singlet
    Trans. Mom.: -0.1555 X   0.0201 Y   0.0567 Z
    Strength   :     0.0023067229
    D(270) --> V(  2) amplitude =  0.9871

 Excited state  12: excitation energy (eV) =    3.4104
 Total energy for state 12:                 -3084.67295416 au
    Multiplicity: Singlet
    Trans. Mom.:  0.0719 X   0.0676 Y   0.1149 Z
    Strength   :     0.0019162082
    D(266) --> V(  1) amplitude = -0.9298

 ---------------------------------------------------
