 Q-Chem 5.1, Q-Chem, Inc., Pleasanton, CA (2018)
 Q-Chem 5.1.1 for Intel X86 EM64T Linux

User input:
--------------------------------------------------------------
$solvent
dielectric      2.03
dielectric_infi 2.02
$end

$rem
threads 8
jobtype	sp
method PBEh-3c
basis def2-mSVP
mem_static	1024
mem_total	14000
sym_ignore	true
cis_n_roots             2
cis_singlets            false
cis_triplets		true
rpa                     false
calc_soc 		true
cis_moments             true
cis_relaxed_density	true
solvent_method		pcm
$end

$pcm
StateSpecific   1
ChargeSeparation Excited
$end

$molecule
read utleopt_chx.mol
$end

--------------------------------------------------------------

   14   -3084.7955889488      8.20e-09  Convergence criterion met
 Total energy in the final basis set =    -3084.7955889488

                    Orbital Energies (a.u.)
 --------------------------------------------------------------

 Alpha MOs
 -- Occupied --
-14.670 -14.670 -10.492 -10.492 -10.491 -10.491 -10.485 -10.484
-10.466 -10.466 -10.466 -10.466 -10.465 -10.465 -10.465 -10.465
-10.465 -10.465 -10.464 -10.464 -10.463 -10.463 -10.462 -10.462
-10.462 -10.462 -10.460 -10.459 -10.459 -10.459 -10.456 -10.455
-10.455 -10.454 -10.452 -10.451 -10.450 -10.450 -10.449 -10.449
-10.449 -10.449 -10.448 -10.448 -10.448 -10.448 -10.447 -10.447
-10.447 -10.447 -10.447 -10.447 -10.445 -10.445 -10.445 -10.444
-10.443 -10.443 -10.443 -10.441 -10.437 -10.437 -10.436 -10.436
-10.436 -10.436 -10.434 -10.434 -10.432 -10.431 -10.431 -10.431
-10.426 -10.420 -10.419 -10.419 -10.418 -10.418  -6.950  -6.942
 -1.087  -1.080  -1.017  -1.016  -0.964  -0.963  -0.961  -0.960
 -0.960  -0.958  -0.940  -0.940  -0.934  -0.934  -0.909  -0.900
 -0.890  -0.888  -0.868  -0.865  -0.856  -0.856  -0.853  -0.851
 -0.848  -0.847  -0.843  -0.841  -0.840  -0.836  -0.826  -0.822
 -0.820  -0.814  -0.813  -0.805  -0.801  -0.800  -0.792  -0.786
 -0.736  -0.732  -0.728  -0.721  -0.717  -0.716  -0.712  -0.711
 -0.699  -0.699  -0.699  -0.697  -0.690  -0.684  -0.682  -0.680
 -0.680  -0.675  -0.669  -0.667  -0.649  -0.646  -0.638  -0.636
 -0.631  -0.629  -0.606  -0.605  -0.597  -0.595  -0.592  -0.589
 -0.586  -0.585  -0.583  -0.576  -0.576  -0.562  -0.561  -0.555
 -0.554  -0.544  -0.544  -0.543  -0.541  -0.537  -0.528  -0.526
 -0.525  -0.522  -0.518  -0.514  -0.510  -0.508  -0.504  -0.502
 -0.502  -0.499  -0.498  -0.497  -0.496  -0.496  -0.495  -0.491
 -0.489  -0.488  -0.486  -0.486  -0.486  -0.485  -0.484  -0.484
 -0.483  -0.480  -0.478  -0.477  -0.476  -0.468  -0.466  -0.464
 -0.462  -0.455  -0.455  -0.451  -0.443  -0.441  -0.436  -0.436
 -0.436  -0.434  -0.432  -0.429  -0.428  -0.427  -0.427  -0.426
 -0.422  -0.421  -0.420  -0.417  -0.413  -0.411  -0.409  -0.406
 -0.404  -0.403  -0.400  -0.399  -0.399  -0.398  -0.397  -0.396
 -0.396  -0.394  -0.393  -0.392  -0.392  -0.387  -0.385  -0.385
 -0.380  -0.373  -0.369  -0.364  -0.358  -0.357  -0.353  -0.350
 -0.347  -0.336  -0.321  -0.315  -0.307  -0.303  -0.301  -0.300
 -0.298  -0.297  -0.296  -0.295  -0.287  -0.284  -0.282  -0.276
 -0.274  -0.263  -0.258  -0.256  -0.222  -0.215

          Ground-State Mulliken Net Atomic Charges

     Atom                 Charge (a.u.)
  ----------------------------------------
      1 C                    -0.146700
      2 C                    -0.389528
      3 H                     0.243941
      4 C                     0.097921
      5 C                     0.091878
      6 C                    -0.398125
      7 H                     0.240859
      8 C                    -0.149399
      9 C                     0.184723
     10 C                    -0.384780
     11 H                     0.238609
     12 C                    -0.069512
     13 C                     0.232961
     14 C                     0.192768
     15 C                    -0.389975
     16 H                     0.237094
     17 C                    -0.221552
     18 H                     0.244859
     19 C                    -0.340368
     20 H                     0.241058
     21 C                    -0.219326
     22 H                     0.244140
     23 C                    -0.343336
     24 H                     0.241017
     25 B                     0.631696
     26 C                    -0.146818
     27 C                    -0.397269
     28 H                     0.243528
     29 C                     0.105619
     30 C                     0.087229
     31 C                    -0.395057
     32 H                     0.241563
     33 C                    -0.151814
     34 C                     0.184365
     35 C                    -0.383949
     36 H                     0.237566
     37 C                    -0.066863
     38 C                     0.235404
     39 C                     0.188188
     40 C                    -0.391624
     41 H                     0.238173
     42 C                    -0.222062
     43 H                     0.244610
     44 C                    -0.340124
     45 H                     0.241007
     46 C                    -0.219645
     47 H                     0.244234
     48 C                    -0.344452
     49 H                     0.241127
     50 B                     0.652046
     51 C                    -0.243815
     52 C                     0.081154
     53 C                    -0.383638
     54 H                     0.247309
     55 C                     0.309713
     56 N                    -0.656039
     57 C                     0.271423
     58 C                    -0.282161
     59 H                     0.256033
     60 C                    -0.233173
     61 H                     0.238519
     62 C                    -0.251721
     63 H                     0.234142
     64 C                    -0.232263
     65 H                     0.236488
     66 C                    -0.274464
     67 H                     0.257525
     68 C                     0.272202
     69 C                    -0.282023
     70 H                     0.255817
     71 C                    -0.232762
     72 H                     0.238416
     73 C                    -0.252023
     74 H                     0.234113
     75 C                    -0.232024
     76 H                     0.237396
     77 C                    -0.276182
     78 H                     0.258386
     79 C                    -0.384665
     80 H                     0.246411
     81 C                     0.094162
     82 C                    -0.548393
     83 H                     0.250890
     84 H                     0.236450
     85 C                    -0.554320
     86 H                     0.255047
     87 H                     0.237384
     88 C                    -0.656070
     89 H                     0.242518
     90 H                     0.224095
     91 H                     0.220613
     92 C                    -0.655358
     93 H                     0.244403
     94 H                     0.222877
     95 H                     0.220462
     96 C                    -0.224342
     97 C                     0.065337
     98 C                    -0.347031
     99 H                     0.239386
    100 C                     0.291130
    101 C                    -0.352359
    102 H                     0.241346
    103 C                     0.058969
    104 N                    -0.673260
    105 C                     0.305801
    106 C                    -0.299045
    107 H                     0.255519
    108 C                    -0.228754
    109 H                     0.236225
    110 C                    -0.257573
    111 H                     0.233108
    112 C                    -0.228542
    113 H                     0.235373
    114 C                    -0.293145
    115 H                     0.251867
    116 C                     0.293219
    117 C                    -0.288874
    118 H                     0.250901
    119 C                    -0.230177
    120 H                     0.235470
    121 C                    -0.254489
    122 H                     0.234139
    123 C                    -0.230732
    124 H                     0.236992
    125 C                    -0.285973
    126 H                     0.255196
    127 C                    -0.549989
    128 H                     0.252106
    129 H                     0.238377
    130 C                    -0.551657
    131 H                     0.254712
    132 H                     0.238963
    133 C                    -0.652012
    134 H                     0.236468
    135 H                     0.224626
    136 H                     0.221804
    137 C                    -0.651363
    138 H                     0.238387
    139 H                     0.224027
    140 H                     0.221105
  ----------------------------------------
  Sum of atomic charges =    -0.000000

                    Cartesian Multipole Moments
 -----------------------------------------------------------------
    Charge (ESU x 10^10)
                -0.0000
    Dipole Moment (Debye)
         X       0.8814      Y      -0.0358      Z       0.4120
       Tot       0.9736
    Quadrupole Moments (Debye-Ang)
        XX    -412.6427     XY       1.5575     YY    -462.0901
        XZ     -14.5035     YZ      -0.8133     ZZ    -391.5915

 Total job time:  15676.66s(wall), 49595.75s(cpu)
        *  Thank you very much for using Q-Chem.  Have a nice day.  *
 Q-Chem 5.1, Q-Chem, Inc., Pleasanton, CA (2018)
 Q-Chem 5.1.1 for Intel X86 EM64T Linux

User input:
--------------------------------------------------------------
$rem
threads 8
jobtype sp
method PBEh-3c
basis def2-mSVP
mem_static      1024
mem_total       14000
sym_ignore      true
cis_n_roots             6
cis_singlets            true
cis_triplets            true
rpa                     false
calc_soc                true
cis_moments             true
cis_relaxed_density     true
solvent_method          pcm
$end

$molecule
read
$end

$pcm
statespecific           Marcus
$end

$solvent
dielectric      2.03
dielectric_infi 2.02
$end

--------------------------------------------------------------

             Standard Nuclear Orientation (Angstroms)
    I     Atom           X                Y                Z
 ----------------------------------------------------------------
    1      C       0.0000000000     0.0000000000     0.0000000000
    2      C       0.0000000000     0.0000000000     1.4141440000
    3      H       0.9420606398     0.0000000000     1.9542330829
    4      C      -1.1766771635     0.0003913715     2.1152873023
    5      C      -2.4208454739     0.0087395999     1.4148794004
    6      C      -2.4439882065     0.0249900434     0.0411494250
    7      H      -3.3939749302     0.0421701122    -0.4844499352
    8      C      -1.2462791260     0.0209062589    -0.6996414282
    9      C      -3.4945860746     0.0043687788     2.4004477382
   10      C      -4.8670880355     0.0054614126     2.3443095536
   11      H      -5.3992690223     0.0118069488     1.4009215722
   12      C      -2.8722129088    -0.0052751869     3.6661351051
   13      C      -3.5656841250    -0.0138385241     4.8740303378
   14      C      -1.4667973703    -0.0071305247     3.5502424959
   15      C      -0.7230941708    -0.0168143365     4.7036402905
   16      H       0.3598894231    -0.0182346330     4.6839230622
   17      C      -5.5946569140    -0.0028354495     3.5565184345
   18      H      -6.6765098314    -0.0024189490     3.5092759847
   19      C      -4.9806129807    -0.0121498372     4.7880080985
   20      H      -5.5797979491    -0.0187656006     5.6905110039
   21      C      -1.3985230706    -0.0254572241     5.9463193684
   22      H      -0.8092156702    -0.0331654061     6.8546601049
   23      C      -2.7714480718    -0.0242788936     6.0457873290
   24      H      -3.2429411650    -0.0315105931     7.0211123284
   25      B       1.3088287449    -0.0033325124    -0.7869245423
   26      C       1.3091100056    -0.0172791242    -2.3131717967
   27      C       2.5154358639    -0.0457039143    -3.0521931124
   28      H       3.4665475697    -0.0745530539    -2.5277083111
   29      C       2.4985279483    -0.0357464949    -4.4243428186
   30      C       1.2507143782     0.0086984547    -5.1129912334
   31      C       0.0683388212     0.0330907047    -4.4142268467
   32      H      -0.8765006340     0.0680476983    -4.9471044592
   33      C       0.0602491939     0.0169279127    -3.0075069553
   34      C       1.5181652935     0.0219377885    -6.5448105204
   35      C       0.7436556700     0.0656819364    -7.6776683087
   36      H      -0.3378832292     0.0994823725    -7.6278532164
   37      C       2.9191004840    -0.0188536682    -6.6870470384
   38      C       3.5772449896    -0.0202442598    -7.9133187667
   39      C       3.5603256474    -0.0567827140    -5.4318847152
   40      C       4.9308083324    -0.1024339253    -5.4100268764
   41      H       5.4851233538    -0.1364993391    -4.4802395034
   42      C       1.3875888171     0.0676369040    -8.9361934328
   43      H       0.7760936699     0.1035381645    -9.8290609884
   44      C       2.7569002807     0.0256113117    -9.0673372512
   45      H       3.2066722299     0.0284703471   -10.0527898120
   46      C       5.6291748394    -0.1068419735    -6.6402739660
   47      H       6.7109697186    -0.1440976210    -6.6188097353
   48      C       4.9903017854    -0.0667610420    -7.8585264688
   49      H       5.5690190816    -0.0718509104    -8.7741813090
   50      B      -1.2742592164     0.0561847563    -2.2369441491
   51      C       2.6660215509     0.0796778733     0.0167193405
   52      C       3.3409218729     1.3249098153     0.1307127654
   53      C       4.4986512202     1.4168405068     0.8638900563
   54      H       4.9870055980     2.3767165570     0.9794555945
   55      C       5.0082766192     0.2903983306     1.5394727709
   56      N       6.1392445770     0.4044851517     2.3037961216
   57      C       6.2869783747    -0.3702666395     3.4713534115
   58      C       7.5095446569    -0.9728275595     3.7581455268
   59      H       8.3437526660    -0.8634122109     3.0775735393
   60      C       7.6351079185    -1.7321884938     4.9072075909
   61      H       8.5781061876    -2.2134281609     5.1276456386
   62      C       6.5549706197    -1.8894422191     5.7670954961
   63      H       6.6605529697    -2.4861868470     6.6629364784
   64      C       5.3415871390    -1.2787010527     5.4796542805
   65      H       4.5030511113    -1.3878337999     6.1537874435
   66      C       5.2018902270    -0.5140251335     4.3358397214
   67      H       4.2652000664    -0.0157371853     4.1204187025
   68      C       7.1524735936     1.3170217287     1.9462702599
   69      C       7.7468894619     2.1179171940     2.9196531514
   70      H       7.4298159295     2.0493020171     3.9521404651
   71      C       8.7235873661     3.0238242349     2.5472441836
   72      H       9.1756760578     3.6575146104     3.2979897257
   73      C       9.1106004821     3.1326222083     1.2172621034
   74      H       9.8726649916     3.8454146904     0.9326307641
   75      C       8.5211688704     2.3252699988     0.2538686747
   76      H       8.8280903752     2.3987180264    -0.7804699984
   77      C       7.5449526848     1.4131292070     0.6117167773
   78      H       7.0979369671     0.7699170631    -0.1354810790
   79      C       4.3412178041    -0.9475039071     1.4357346042
   80      H       4.7571789061    -1.8217720856     1.9213470431
   81      C       3.2042358969    -1.0604057675     0.6729317212
   82      C       2.5575112318    -2.4074952366     0.5058414720
   83      H       1.4718638630    -2.3027137458     0.5500320648
   84      H       2.8419415846    -3.0522219093     1.3407542121
   85      C       2.7685801738     2.5753609678    -0.4815826080
   86      H       2.3127735214     2.3418178062    -1.4443759486
   87      H       3.5804756035     3.2784223364    -0.6833812522
   88      C       2.9450196328    -3.0760427424    -0.8118179368
   89      H       2.6283894143    -2.4805734434    -1.6672718909
   90      H       2.4670540435    -4.0516924085    -0.8969318586
   91      H       4.0238647363    -3.2224785665    -0.8799078799
   92      C       1.7307680188     3.2442569661     0.4195319904
   93      H       0.8756031969     2.5928857597     0.5948579101
   94      H       1.3592783739     4.1568865830    -0.0463168623
   95      H       2.1579980655     3.5110165629     1.3872572887
   96      C      -2.6473789540     0.1644693919    -3.0224564704
   97      C      -3.4239515272    -0.9682822162    -3.3097160853
   98      C      -4.6121879275    -0.8530825639    -4.0225894290
   99      H      -5.2025224815    -1.7389995108    -4.2317725799
  100      C      -5.0428551294     0.3792948062    -4.4925395378
  101      C      -4.2852933235     1.5067678623    -4.2101193195
  102      H      -4.6110782969     2.4756778708    -4.5732982852
  103      C      -3.1115422773     1.4104427983    -3.4732238297
  104      N      -6.2212353802     0.4754645150    -5.2677534245
  105      C      -7.1359523838     1.5093794372    -5.0306753908
  106      C      -7.7591244602     2.1751347272    -6.0881173393
  107      H      -7.5325631983     1.8976125414    -7.1094211724
  108      C      -8.6649691194     3.1936464096    -5.8401005730
  109      H      -9.1363003165     3.6958108705    -6.6755006135
  110      C      -8.9533395836     3.5852576729    -4.5407937793
  111      H      -9.6550172660     4.3866558011    -4.3511159807
  112      C      -8.3244044615     2.9354184237    -3.4877563217
  113      H      -8.5384655787     3.2251440262    -2.4668175531
  114      C      -7.4321418312     1.9030732923    -3.7239865865
  115      H      -6.9572942716     1.3991833215    -2.8921830815
  116      C      -6.3851352104    -0.3849656884    -6.3640994601
  117      C      -5.2984009334    -0.7208405148    -7.1711611308
  118      H      -4.3221302236    -0.3074103145    -6.9535290054
  119      C      -5.4635722438    -1.5795784833    -8.2456268681
  120      H      -4.6078992649    -1.8295564479    -8.8597431889
  121      C      -6.7126662821    -2.1036964579    -8.5466958058
  122      H      -6.8396479841    -2.7684958076    -9.3907652411
  123      C      -7.7970644144    -1.7656269494    -7.7488478649
  124      H      -8.7767039725    -2.1732695439    -7.9639405752
  125      C      -7.6377375016    -0.9231547677    -6.6612877750
  126      H      -8.4882410825    -0.6796746178    -6.0371999591
  127      C      -2.9726494618    -2.3475274571    -2.9076620531
  128      H      -2.3282735834    -2.2952185580    -2.0276171028
  129      H      -3.8402389878    -2.9463762409    -2.6165851781
  130      C      -2.3801143017     2.6876139758    -3.1486223694
  131      H      -1.3098679992     2.4977765396    -3.0454803945
  132      H      -2.4871533985     3.3914041268    -3.9787823043
  133      C      -2.2306873658    -3.0522178089    -4.0413182620
  134      H      -1.3323568005    -2.5013604076    -4.3211267385
  135      H      -1.9269852497    -4.0583856914    -3.7487953313
  136      H      -2.8602360734    -3.1358629052    -4.9286851063
  137      C      -2.9081223421     3.3357649367    -1.8700875556
  138      H      -2.7847759607     2.6710044741    -1.0149129170
  139      H      -2.3758953752     4.2627404937    -1.6508587315
  140      H      -3.9696738096     3.5725401630    -1.9590482452
 ----------------------------------------------------------------

   14   -3084.7955419989      8.20e-09  Convergence criterion met
 Total energy in the final basis set =    -3084.7955419989

         TDDFT/TDA Excitation Energies
 ---------------------------------------------------

 Excited state   1: excitation energy (eV) =    2.1117
 Total energy for state  1:                 -3084.71793673 au
    Multiplicity: Triplet
    Trans. Mom.:  0.0000 X   0.0000 Y   0.0000 Z
    Strength   :     0.0000000000
    D(270) --> V(  1) amplitude =  0.9520

 Excited state   2: excitation energy (eV) =    2.1652
 Total energy for state  2:                 -3084.71597306 au
    Multiplicity: Singlet
    Trans. Mom.:  0.8176 X   0.0418 Y   0.4081 Z
    Strength   :     0.0443842184
    D(270) --> V(  1) amplitude =  0.9732

 Excited state   3: excitation energy (eV) =    2.2059
 Total energy for state  3:                 -3084.71447554 au
    Multiplicity: Triplet
    Trans. Mom.:  0.0000 X   0.0000 Y   0.0000 Z
    Strength   :     0.0000000000
    D(267) --> V(  1) amplitude =  0.7508
    D(268) --> V(  1) amplitude =  0.5182

 Excited state   4: excitation energy (eV) =    2.4278
 Total energy for state  4:                 -3084.70632374 au
    Multiplicity: Triplet
    Trans. Mom.:  0.0000 X   0.0000 Y   0.0000 Z
    Strength   :     0.0000000000
    D(266) --> V(  2) amplitude = -0.4644
    D(267) --> V(  1) amplitude = -0.4695
    D(268) --> V(  1) amplitude =  0.6472

 Excited state   5: excitation energy (eV) =    2.4690
 Total energy for state  5:                 -3084.70480773 au
    Multiplicity: Triplet
    Trans. Mom.:  0.0000 X   0.0000 Y   0.0000 Z
    Strength   :     0.0000000000
    D(266) --> V(  1) amplitude =  0.2916
    D(269) --> V(  1) amplitude =  0.8808

 Excited state   6: excitation energy (eV) =    2.4921
 Total energy for state  6:                 -3084.70395898 au
    Multiplicity: Singlet
    Trans. Mom.:  0.3235 X  -0.0256 Y   0.2483 Z
    Strength   :     0.0101954775
    D(269) --> V(  1) amplitude =  0.9734

 Excited state   7: excitation energy (eV) =    2.4932
 Total energy for state  7:                 -3084.70392000 au
    Multiplicity: Triplet
    Trans. Mom.:  0.0000 X   0.0000 Y   0.0000 Z
    Strength   :     0.0000000000
    D(266) --> V(  1) amplitude = -0.6774
    D(266) --> V(  4) amplitude = -0.2183
    D(268) --> V(  2) amplitude =  0.4674
    D(269) --> V(  1) amplitude =  0.3680

 Excited state   8: excitation energy (eV) =    2.7277
 Total energy for state  8:                 -3084.69530063 au
    Multiplicity: Triplet
    Trans. Mom.:  0.0000 X   0.0000 Y   0.0000 Z
    Strength   :     0.0000000000
    D(261) --> V(  1) amplitude =  0.2741
    D(262) --> V(  1) amplitude =  0.3640
    D(263) --> V(  1) amplitude = -0.5355
    D(267) --> V(  2) amplitude =  0.5100
    D(268) --> V(  2) amplitude =  0.2222

 Excited state   9: excitation energy (eV) =    2.8687
 Total energy for state  9:                 -3084.69011961 au
    Multiplicity: Singlet
    Trans. Mom.:  0.2019 X   0.0145 Y  -0.3745 Z
    Strength   :     0.0127362368
    D(267) --> V(  1) amplitude =  0.8067
    D(268) --> V(  1) amplitude =  0.5365

 Excited state  10: excitation energy (eV) =    3.1202
 Total energy for state 10:                 -3084.68087677 au
    Multiplicity: Singlet
    Trans. Mom.:  1.9414 X  -0.0120 Y  -3.4944 Z
    Strength   :     1.2216026884
    D(267) --> V(  1) amplitude = -0.5302
    D(268) --> V(  1) amplitude =  0.7962

 Excited state  11: excitation energy (eV) =    3.4069
 Total energy for state 11:                 -3084.67034188 au
    Multiplicity: Singlet
    Trans. Mom.:  0.1705 X  -0.0127 Y  -0.0527 Z
    Strength   :     0.0026703295
    D(270) --> V(  2) amplitude =  0.9709

 Excited state  12: excitation energy (eV) =    3.4198
 Total energy for state 12:                 -3084.66986795 au
    Multiplicity: Singlet
    Trans. Mom.: -0.0565 X  -0.0684 Y  -0.1174 Z
    Strength   :     0.0018133836
    D(266) --> V(  1) amplitude =  0.9143

 ---------------------------------------------------
