 Q-Chem 5.1, Q-Chem, Inc., Pleasanton, CA (2018)
 Q-Chem 5.1.1 for Intel X86 EM64T Linux

User input:
--------------------------------------------------------------
$solvent
dielectric      4.33
dielectric_infi 1.83
$end

$rem
threads 8
jobtype	sp
method PBEh-3c
basis def2-mSVP
mem_static	1024
mem_total	14000
sym_ignore	true
cis_n_roots             2
cis_singlets            false
cis_triplets		true
rpa                     false
calc_soc 		true
cis_moments             true
cis_relaxed_density	true
solvent_method		pcm
$end

$pcm
StateSpecific   1
ChargeSeparation Excited
$end

$molecule
read utleopt_eth.mol
$end

--------------------------------------------------------------

   14   -3084.8074661463      8.15e-09  Convergence criterion met
 Total energy in the final basis set =    -3084.8074661463

                    Orbital Energies (a.u.)
 --------------------------------------------------------------

 Alpha MOs
 -- Occupied --
-14.672 -14.672 -10.493 -10.493 -10.493 -10.493 -10.487 -10.486
-10.468 -10.468 -10.467 -10.467 -10.467 -10.467 -10.466 -10.466
-10.466 -10.466 -10.465 -10.465 -10.464 -10.463 -10.463 -10.463
-10.463 -10.463 -10.459 -10.459 -10.459 -10.459 -10.458 -10.457
-10.457 -10.456 -10.453 -10.453 -10.451 -10.451 -10.451 -10.451
-10.450 -10.450 -10.450 -10.450 -10.449 -10.449 -10.448 -10.448
-10.448 -10.448 -10.448 -10.447 -10.446 -10.446 -10.445 -10.445
-10.445 -10.444 -10.444 -10.442 -10.440 -10.439 -10.439 -10.438
-10.438 -10.438 -10.435 -10.435 -10.434 -10.434 -10.433 -10.433
-10.428 -10.422 -10.421 -10.421 -10.420 -10.420  -6.952  -6.945
 -1.089  -1.081  -1.018  -1.018  -0.966  -0.964  -0.963  -0.962
 -0.961  -0.960  -0.942  -0.941  -0.935  -0.934  -0.910  -0.901
 -0.891  -0.890  -0.870  -0.867  -0.858  -0.858  -0.853  -0.852
 -0.848  -0.848  -0.844  -0.841  -0.841  -0.838  -0.827  -0.823
 -0.821  -0.815  -0.814  -0.806  -0.802  -0.801  -0.793  -0.788
 -0.737  -0.733  -0.728  -0.722  -0.718  -0.718  -0.714  -0.712
 -0.701  -0.701  -0.700  -0.699  -0.690  -0.684  -0.683  -0.681
 -0.681  -0.675  -0.670  -0.669  -0.650  -0.647  -0.639  -0.637
 -0.632  -0.631  -0.607  -0.606  -0.598  -0.596  -0.592  -0.589
 -0.588  -0.586  -0.584  -0.577  -0.577  -0.563  -0.562  -0.556
 -0.555  -0.546  -0.545  -0.544  -0.543  -0.538  -0.528  -0.526
 -0.525  -0.523  -0.519  -0.514  -0.511  -0.510  -0.505  -0.503
 -0.502  -0.501  -0.499  -0.498  -0.497  -0.496  -0.496  -0.492
 -0.490  -0.490  -0.488  -0.487  -0.487  -0.486  -0.486  -0.485
 -0.484  -0.481  -0.478  -0.478  -0.477  -0.470  -0.467  -0.466
 -0.463  -0.457  -0.456  -0.452  -0.444  -0.441  -0.438  -0.437
 -0.437  -0.436  -0.434  -0.431  -0.430  -0.428  -0.428  -0.428
 -0.424  -0.422  -0.420  -0.418  -0.413  -0.412  -0.410  -0.408
 -0.405  -0.404  -0.400  -0.400  -0.400  -0.399  -0.398  -0.397
 -0.397  -0.395  -0.394  -0.393  -0.393  -0.388  -0.387  -0.386
 -0.382  -0.375  -0.370  -0.366  -0.360  -0.359  -0.355  -0.352
 -0.349  -0.339  -0.323  -0.317  -0.308  -0.305  -0.303  -0.302
 -0.299  -0.298  -0.297  -0.297  -0.289  -0.286  -0.284  -0.278
 -0.276  -0.264  -0.260  -0.257  -0.224  -0.217

          Ground-State Mulliken Net Atomic Charges

     Atom                 Charge (a.u.)
  ----------------------------------------
      1 C                    -0.147218
      2 C                    -0.391383
      3 H                     0.249048
      4 C                     0.091375
      5 C                     0.085551
      6 C                    -0.399799
      7 H                     0.246517
      8 C                    -0.150215
      9 C                     0.178255
     10 C                    -0.388324
     11 H                     0.249847
     12 C                    -0.070523
     13 C                     0.221499
     14 C                     0.185372
     15 C                    -0.393237
     16 H                     0.249001
     17 C                    -0.230944
     18 H                     0.255472
     19 C                    -0.344322
     20 H                     0.252922
     21 C                    -0.229111
     22 H                     0.255017
     23 C                    -0.346958
     24 H                     0.252906
     25 B                     0.632049
     26 C                    -0.146653
     27 C                    -0.399359
     28 H                     0.248916
     29 C                     0.099058
     30 C                     0.080945
     31 C                    -0.396874
     32 H                     0.247450
     33 C                    -0.153247
     34 C                     0.177795
     35 C                    -0.387487
     36 H                     0.249232
     37 C                    -0.067974
     38 C                     0.223950
     39 C                     0.180875
     40 C                    -0.394751
     41 H                     0.249651
     42 C                    -0.231513
     43 H                     0.255290
     44 C                    -0.344003
     45 H                     0.252874
     46 C                    -0.229311
     47 H                     0.254939
     48 C                    -0.348048
     49 H                     0.253031
     50 B                     0.649881
     51 C                    -0.241134
     52 C                     0.074082
     53 C                    -0.382631
     54 H                     0.251530
     55 C                     0.304574
     56 N                    -0.654411
     57 C                     0.272151
     58 C                    -0.289415
     59 H                     0.262035
     60 C                    -0.241570
     61 H                     0.247727
     62 C                    -0.262036
     63 H                     0.242900
     64 C                    -0.240809
     65 H                     0.246530
     66 C                    -0.282562
     67 H                     0.263924
     68 C                     0.273268
     69 C                    -0.289404
     70 H                     0.261785
     71 C                    -0.241078
     72 H                     0.247661
     73 C                    -0.262449
     74 H                     0.242851
     75 C                    -0.240300
     76 H                     0.247055
     77 C                    -0.284359
     78 H                     0.264097
     79 C                    -0.383592
     80 H                     0.250878
     81 C                     0.087151
     82 C                    -0.549040
     83 H                     0.250589
     84 H                     0.241285
     85 C                    -0.554857
     86 H                     0.254380
     87 H                     0.242140
     88 C                    -0.659560
     89 H                     0.239743
     90 H                     0.227362
     91 H                     0.222646
     92 C                    -0.659246
     93 H                     0.241310
     94 H                     0.226587
     95 H                     0.222483
     96 C                    -0.223653
     97 C                     0.061962
     98 C                    -0.351803
     99 H                     0.244515
    100 C                     0.293121
    101 C                    -0.356443
    102 H                     0.245965
    103 C                     0.053631
    104 N                    -0.672634
    105 C                     0.304958
    106 C                    -0.304650
    107 H                     0.259954
    108 C                    -0.237773
    109 H                     0.245891
    110 C                    -0.266968
    111 H                     0.242617
    112 C                    -0.237623
    113 H                     0.245378
    114 C                    -0.299446
    115 H                     0.257783
    116 C                     0.291168
    117 C                    -0.294902
    118 H                     0.257101
    119 C                    -0.239432
    120 H                     0.245810
    121 C                    -0.263285
    122 H                     0.243794
    123 C                    -0.239728
    124 H                     0.246695
    125 C                    -0.290818
    126 H                     0.259976
    127 C                    -0.550060
    128 H                     0.251312
    129 H                     0.242819
    130 C                    -0.552481
    131 H                     0.254720
    132 H                     0.243517
    133 C                    -0.655876
    134 H                     0.234749
    135 H                     0.227722
    136 H                     0.223396
    137 C                    -0.655269
    138 H                     0.236310
    139 H                     0.227206
    140 H                     0.223045
  ----------------------------------------
  Sum of atomic charges =    -0.000000

                    Cartesian Multipole Moments
 -----------------------------------------------------------------
    Charge (ESU x 10^10)
                -0.0000
    Dipole Moment (Debye)
         X       0.7502      Y      -0.0632      Z       0.3010
       Tot       0.8107
    Quadrupole Moments (Debye-Ang)
        XX    -408.1966     XY       1.4789     YY    -460.9505
        XZ     -16.0298     YZ      -0.5121     ZZ    -383.3944

 Total job time:  19731.63s(wall), 57532.61s(cpu)
        *  Thank you very much for using Q-Chem.  Have a nice day.  *
 Q-Chem 5.1, Q-Chem, Inc., Pleasanton, CA (2018)
 Q-Chem 5.1.1 for Intel X86 EM64T Linux

User input:
--------------------------------------------------------------
$rem
threads 8
jobtype sp
method PBEh-3c
basis def2-mSVP
mem_static      1024
mem_total       14000
sym_ignore      true
cis_n_roots             6
cis_singlets            true
cis_triplets            true
rpa                     false
calc_soc                true
cis_moments             true
cis_relaxed_density     true
solvent_method          pcm
$end

$molecule
read
$end

$pcm
statespecific           Marcus
$end

$solvent
dielectric      4.33
dielectric_infi 1.83
$end

--------------------------------------------------------------

             Standard Nuclear Orientation (Angstroms)
    I     Atom           X                Y                Z
 ----------------------------------------------------------------
    1      C       0.0000000000     0.0000000000     0.0000000000
    2      C       0.0000000000     0.0000000000     1.4138000000
    3      H       0.9421537052     0.0000000000     1.9532398448
    4      C      -1.1773823763     0.0006692669     2.1153556541
    5      C      -2.4221804208     0.0094035051     1.4147807218
    6      C      -2.4453664412     0.0247089963     0.0409836115
    7      H      -3.3961694897     0.0418805228    -0.4833574282
    8      C      -1.2468390178     0.0199954268    -0.7001476342
    9      C      -3.4962807343     0.0072609627     2.4008429458
   10      C      -4.8692904000     0.0109628168     2.3448722555
   11      H      -5.4022785456     0.0175698701     1.4018028652
   12      C      -2.8729793376    -0.0019123906     3.6663522988
   13      C      -3.5662356286    -0.0076166340     4.8748858413
   14      C      -1.4671597983    -0.0055113504     3.5502651705
   15      C      -0.7223298104    -0.0148247811     4.7036161038
   16      H       0.3606455421    -0.0177702713     4.6839998701
   17      C      -5.5965021987     0.0055965463     3.5578214510
   18      H      -6.6784061426     0.0081811967     3.5110161475
   19      C      -4.9815758484    -0.0033779284     4.7895226861
   20      H      -5.5801828276    -0.0075349273     5.6924753207
   21      C      -1.3980899138    -0.0209914935     5.9466944501
   22      H      -0.8080772283    -0.0285521587     6.8545367246
   23      C      -2.7714972992    -0.0176716452     6.0469536168
   24      H      -3.2428195647    -0.0229274988     7.0223971506
   25      B       1.3133285290    -0.0060017535    -0.7830646696
   26      C       1.3096026226    -0.0256108133    -2.3106192715
   27      C       2.5162933998    -0.0574548441    -3.0485197341
   28      H       3.4663892727    -0.0838253405    -2.5225315199
   29      C       2.5005979272    -0.0533300932    -4.4214488252
   30      C       1.2526403085    -0.0107533016    -5.1116426140
   31      C       0.0696934535     0.0198868201    -4.4139327427
   32      H      -0.8737751582     0.0547912674    -4.9493912087
   33      C       0.0603521775     0.0092718599    -3.0063647630
   34      C       1.5210417223    -0.0056512899    -6.5437024265
   35      C       0.7468211205     0.0315805514    -7.6777306062
   36      H      -0.3349048728     0.0654654106    -7.6293820717
   37      C       2.9224057886    -0.0479481183    -6.6841254956
   38      C       3.5817450721    -0.0562743799    -7.9102568764
   39      C       3.5630358914    -0.0794791602    -5.4280017873
   40      C       4.9341458844    -0.1247858671    -5.4044787554
   41      H       5.4881062209    -0.1530421958    -4.4742853992
   42      C       1.3921718548     0.0260136446    -8.9359310812
   43      H       0.7814739328     0.0565959619    -9.8295819763
   44      C       2.7622360553    -0.0168515617    -9.0655664813
   45      H       3.2131537621    -0.0196812975   -10.0505448762
   46      C       5.6332235155    -0.1357620134    -6.6347880737
   47      H       6.7149959455    -0.1722781217    -6.6118781243
   48      C       4.9952947593    -0.1025815820    -7.8543782881
   49      H       5.5745819831    -0.1125784442    -8.7696558996
   50      B      -1.2744202052     0.0552117258    -2.2371858742
   51      C       2.6713482647     0.0739412750     0.0232292817
   52      C       3.3409542776     1.3168550169     0.1478815047
   53      C       4.4966488449     1.4082188436     0.8889120575
   54      H       4.9810806712     2.3690367409     1.0139007259
   55      C       5.0049319432     0.2791560491     1.5554391112
   56      N       6.1339450532     0.3914449420     2.3304207898
   57      C       6.2568937698    -0.3665305995     3.5085679607
   58      C       7.4748144227    -0.9644944335     3.8287339237
   59      H       8.3231185909    -0.8659263589     3.1641759909
   60      C       7.5751789239    -1.7106539129     4.9884629653
   61      H       8.5130528665    -2.1894801737     5.2345283333
   62      C       6.4759292011    -1.8582163211     5.8266825398
   63      H       6.5626292067    -2.4438739760     6.7318997331
   64      C       5.2676904011    -1.2522157099     5.5059948763
   65      H       4.4154624892    -1.3531741392     6.1640677435
   66      C       5.1514568481    -0.5023252181     4.3502827982
   67      H       4.2200212980    -0.0052674135     4.1108731189
   68      C       7.1574450013     1.2851280297     1.9666448968
   69      C       7.7670544899     2.0808949201     2.9367957086
   70      H       7.4516941130     2.0226805764     3.9704102651
   71      C       8.7530320729     2.9731423818     2.5575882307
   72      H       9.2159295114     3.6035984821     3.3044572202
   73      C       9.1355555317     3.0729916413     1.2248996260
   74      H       9.9059295296     3.7748260271     0.9351556522
   75      C       8.5313131988     2.2709906297     0.2651407246
   76      H       8.8361456512     2.3370883543    -0.7703161768
   77      C       7.5440463485     1.3736043474     0.6284582017
   78      H       7.0881876002     0.7325262553    -0.1151950081
   79      C       4.3452768365    -0.9584052841     1.4386676394
   80      H       4.7615217031    -1.8357628858     1.9186533141
   81      C       3.2089460800    -1.0672928482     0.6701020992
   82      C       2.5703270681    -2.4175512027     0.4908863302
   83      H       1.4833173147    -2.3184171200     0.5081900511
   84      H       2.8367928561    -3.0598698334     1.3332995434
   85      C       2.7724113055     2.5722585125    -0.4597960688
   86      H       2.3073309182     2.3434746853    -1.4194732651
   87      H       3.5872988072     3.2697746873    -0.6677313562
   88      C       2.9936655417    -3.0873066045    -0.8148272964
   89      H       2.6986497075    -2.4922286488    -1.6785779249
   90      H       2.5221912694    -4.0651857603    -0.9122452020
   91      H       4.0745944597    -3.2289328647    -0.8538847966
   92      C       1.7473722500     3.2492714681     0.4492837716
   93      H       0.8911301013     2.6017951943     0.6350346023
   94      H       1.3756830969     4.1637055173    -0.0133524126
   95      H       2.1862367791     3.5145078128     1.4121880238
   96      C      -2.6466912337     0.1753120062    -3.0245715374
   97      C      -3.4258076109    -0.9511846421    -3.3301893736
   98      C      -4.6105519211    -0.8234705408    -4.0475033311
   99      H      -5.2021327347    -1.7054972057    -4.2698157632
  100      C      -5.0359660350     0.4162910432    -4.5038139591
  101      C      -4.2768225036     1.5380265056    -4.2018992845
  102      H      -4.5970624716     2.5130511232    -4.5536695389
  103      C      -3.1066484127     1.4284817912    -3.4605209708
  104      N      -6.2101161299     0.5250560050    -5.2831941774
  105      C      -7.1208231108     1.5624446987    -5.0433168740
  106      C      -7.7304726937     2.2426572249    -6.0997014212
  107      H      -7.4969627983     1.9751068804    -7.1222053767
  108      C      -8.6327466185     3.2644502256    -5.8495323094
  109      H      -9.0935076809     3.7778645127    -6.6840475953
  110      C      -8.9307419349     3.6444758556    -4.5484531379
  111      H      -9.6294289464     4.4481419501    -4.3569126447
  112      C      -8.3156051444     2.9795930569    -3.4960456668
  113      H      -8.5378141254     3.2595315022    -2.4740584121
  114      C      -7.4272168042     1.9438942483    -3.7350720276
  115      H      -6.9649459159     1.4283434436    -2.9031435941
  116      C      -6.3708361116    -0.3220325665    -6.3913673940
  117      C      -5.2830981068    -0.6420536860    -7.2036610446
  118      H      -4.3080603283    -0.2269761099    -6.9829185294
  119      C      -5.4454720102    -1.4870468693    -8.2900560561
  120      H      -4.5894111885    -1.7246781734    -8.9086038758
  121      C      -6.6931973041    -2.0122457862    -8.5969669296
  122      H      -6.8182476559    -2.6659457673    -9.4500468979
  123      C      -7.7788428814    -1.6895195060    -7.7936451657
  124      H      -8.7570624194    -2.0980232972    -8.0137057457
  125      C      -7.6217732480    -0.8608707900    -6.6945794673
  126      H      -8.4733494713    -0.6296869378    -6.0670793966
  127      C      -2.9832374761    -2.3371917686    -2.9413021846
  128      H      -2.3343480357    -2.2963073908    -2.0638895675
  129      H      -3.8539463622    -2.9319920221    -2.6513458957
  130      C      -2.3746394936     2.6999647387    -3.1149355845
  131      H      -1.3077445829     2.5030410052    -2.9922343512
  132      H      -2.4623558693     3.4101454569    -3.9418699661
  133      C      -2.2518835280    -3.0396369115    -4.0832243571
  134      H      -1.3518575469    -2.4923673569    -4.3650733847
  135      H      -1.9529766875    -4.0493401402    -3.7981888080
  136      H      -2.8869501343    -3.1142930849    -4.9675234534
  137      C      -2.9226199178     3.3428692337    -1.8421174244
  138      H      -2.8307749691     2.6661629189    -0.9922440969
  139      H      -2.3804945943     4.2582347870    -1.5999338673
  140      H      -3.9777787739     3.5985069429    -1.9533820177
 ----------------------------------------------------------------

   14   -3084.8008928340      8.91e-09  Convergence criterion met
 Total energy in the final basis set =    -3084.8008928340

         TDDFT/TDA Excitation Energies
 ---------------------------------------------------

 Excited state   1: excitation energy (eV) =    1.7631
 Total energy for state  1:                 -3084.73610099 au
    Multiplicity: Triplet
    Trans. Mom.:  0.0000 X   0.0000 Y   0.0000 Z
    Strength   :     0.0000000000
    D(270) --> V(  1) amplitude =  0.9706

 Excited state   2: excitation energy (eV) =    1.8099
 Total energy for state  2:                 -3084.73438182 au
    Multiplicity: Singlet
    Trans. Mom.: -0.8512 X  -0.0436 Y  -0.4598 Z
    Strength   :     0.0415872543
    D(270) --> V(  1) amplitude =  0.9775

 Excited state   3: excitation energy (eV) =    2.2258
 Total energy for state  3:                 -3084.71909490 au
    Multiplicity: Triplet
    Trans. Mom.:  0.0000 X   0.0000 Y   0.0000 Z
    Strength   :     0.0000000000
    D(261) --> V(  2) amplitude =  0.2184
    D(267) --> V(  1) amplitude =  0.8386
    D(268) --> V(  1) amplitude =  0.3740

 Excited state   4: excitation energy (eV) =    2.4268
 Total energy for state  4:                 -3084.71170786 au
    Multiplicity: Triplet
    Trans. Mom.:  0.0000 X   0.0000 Y   0.0000 Z
    Strength   :     0.0000000000
    D(266) --> V(  2) amplitude =  0.4505
    D(267) --> V(  1) amplitude = -0.3410
    D(268) --> V(  1) amplitude =  0.7219

 Excited state   5: excitation energy (eV) =    2.4803
 Total energy for state  5:                 -3084.70974466 au
    Multiplicity: Triplet
    Trans. Mom.:  0.0000 X   0.0000 Y   0.0000 Z
    Strength   :     0.0000000000
    D(266) --> V(  1) amplitude =  0.5572
    D(268) --> V(  2) amplitude =  0.3872
    D(269) --> V(  1) amplitude =  0.6248

 Excited state   6: excitation energy (eV) =    2.4979
 Total energy for state  6:                 -3084.70909584 au
    Multiplicity: Triplet
    Trans. Mom.:  0.0000 X   0.0000 Y   0.0000 Z
    Strength   :     0.0000000000
    D(266) --> V(  1) amplitude = -0.4635
    D(268) --> V(  2) amplitude = -0.3556
    D(269) --> V(  1) amplitude =  0.7255

 Excited state   7: excitation energy (eV) =    2.5089
 Total energy for state  7:                 -3084.70869272 au
    Multiplicity: Singlet
    Trans. Mom.: -0.2598 X   0.0264 Y  -0.2249 Z
    Strength   :     0.0073028462
    D(269) --> V(  1) amplitude =  0.9737

 Excited state   8: excitation energy (eV) =    2.7396
 Total energy for state  8:                 -3084.70021344 au
    Multiplicity: Triplet
    Trans. Mom.:  0.0000 X   0.0000 Y   0.0000 Z
    Strength   :     0.0000000000
    D(259) --> V(  1) amplitude = -0.2186
    D(261) --> V(  1) amplitude = -0.6331
    D(267) --> V(  2) amplitude = -0.5410

 Excited state   9: excitation energy (eV) =    2.8935
 Total energy for state  9:                 -3084.69456023 au
    Multiplicity: Singlet
    Trans. Mom.: -0.1641 X  -0.0112 Y   0.2790 Z
    Strength   :     0.0074368966
    D(267) --> V(  1) amplitude =  0.8922
    D(268) --> V(  1) amplitude =  0.3718

 Excited state  10: excitation energy (eV) =    3.0174
 Total energy for state 10:                 -3084.69000698 au
    Multiplicity: Singlet
    Trans. Mom.:  0.3315 X  -0.0247 Y  -0.4302 Z
    Strength   :     0.0218523178
    D(270) --> V(  2) amplitude =  0.9912

 Excited state  11: excitation energy (eV) =    3.1275
 Total energy for state 11:                 -3084.68595978 au
    Multiplicity: Singlet
    Trans. Mom.: -1.8963 X   0.0191 Y   3.4015 Z
    Strength   :     1.1620725736
    D(267) --> V(  1) amplitude = -0.3643
    D(268) --> V(  1) amplitude =  0.8829

 Excited state  12: excitation energy (eV) =    3.3669
 Total energy for state 12:                 -3084.67716117 au
    Multiplicity: Singlet
    Trans. Mom.:  0.3487 X   0.0487 Y   0.3541 Z
    Strength   :     0.0205699558
    D(264) --> V(  1) amplitude = -0.2627
    D(266) --> V(  1) amplitude =  0.4970
    D(270) --> V(  3) amplitude =  0.6422
    D(270) --> V(  4) amplitude = -0.4010

 ---------------------------------------------------
