 Q-Chem 5.0, Q-Chem, Inc., Pleasanton, CA (2017)
 Q-Chem 5.0.1 for Intel X86 EM64T Linux

User input:
--------------------------------------------------------------
$rem
threads 4
jobtype	opt
method PBEh-3c
basis def2-mSVP
mem_static	1024
mem_total	4000
sym_ignore	true
scf_convergence	9
solvent_method	pcm
$end

$molecule
read gsopt.mol
$end

$solvent
dielectric	2.38
$end

$pcm
theory iefpcm
$end
--------------------------------------------------------------

   17   -3006.3433706834      4.44E-10 Convergence criterion met
 Total energy in the final basis set = -3006.34337068
   15   -3006.3433907127      4.80E-10 Convergence criterion met
 Total energy in the final basis set = -3006.34339071
   14   -3006.3432010977      9.14E-10 Convergence criterion met
 Total energy in the final basis set = -3006.34320110
   14   -3006.3432179114      8.01E-10 Convergence criterion met
 Total energy in the final basis set = -3006.34321791
   15   -3006.3429348391      4.68E-10 Convergence criterion met
 Total energy in the final basis set = -3006.34293484
   14   -3006.3432301699      7.46E-10 Convergence criterion met
 Total energy in the final basis set = -3006.34323017
   14   -3006.3432368481      8.67E-10 Convergence criterion met
 Total energy in the final basis set = -3006.34323685
   14   -3006.3432411940      7.19E-10 Convergence criterion met
   14   -3006.3433527958      6.29E-10 Convergence criterion met
 Total energy in the final basis set = -3006.34335280
   14   -3006.3433446159      5.52E-10 Convergence criterion met
 Total energy in the final basis set = -3006.34334462
   14   -3006.3433563550      5.11E-10 Convergence criterion met
 Total energy in the final basis set = -3006.34335636
   14   -3006.3433544815      5.13E-10 Convergence criterion met
 Total energy in the final basis set = -3006.34335448
   14   -3006.3433649825      5.07E-10 Convergence criterion met
 Total energy in the final basis set = -3006.34336498
   14   -3006.3433618897      4.95E-10 Convergence criterion met
 Total energy in the final basis set = -3006.34336189

             Standard Nuclear Orientation (Angstroms)
    I     Atom           X                Y                Z
 ----------------------------------------------------------------
    1      N      -0.0842551630     0.0383185500     0.2026422326
    2      C      -0.1967255305    -0.0231647438     1.6022930410
    3      C       0.9294216361     0.1447231088     2.4073038017
    4      H       1.8955853270     0.3154973385     1.9499178561
    5      C       0.8159220188     0.0909223336     3.7870530099
    6      H       1.7004162944     0.2232068560     4.3967548699
    7      C      -0.4126729427    -0.1493296877     4.3861297815
    8      H      -0.4965616419    -0.2002285911     5.4634939529
    9      C      -1.5332982436    -0.3232963407     3.5857620592
   10      H      -2.5002664545    -0.5036847709     4.0378764678
   11      C      -1.4331758306    -0.2510440981     2.2063330160
   12      H      -2.3164477331    -0.3760618640     1.5929511633
   13      C       0.7217562160     1.0284661110    -0.3874940469
   14      C       1.5682131555     0.7085327886    -1.4483414057
   15      H       1.6113644697    -0.3102181492    -1.8123363346
   16      C       2.3459484848     1.6897488884    -2.0405854349
   17      H       2.9949852169     1.4262810487    -2.8658967032
   18      C       2.3090218878     2.9966467973    -1.5742452448
   19      H       2.9224321386     3.7591835372    -2.0354701682
   20      C       1.4754059218     3.3141181582    -0.5111001528
   21      H       1.4300103434     4.3305177807    -0.1417473076
   22      C       0.6791732707     2.3426992879     0.0740327009
   23      H       0.0189000117     2.6033118958     0.8914595242
   24      C      -0.8082281077    -0.8520288782    -0.6102561698
   25      C      -0.9595458189    -2.1842782127    -0.2445239968
   26      H      -0.4990270569    -2.5470629524     0.6674865133
   27      C      -1.6979446004    -3.0625455553    -1.0299823154
   28      C      -1.3843748521    -0.4142862389    -1.8012277725
   29      H      -1.2710776919     0.6194287812    -2.1051601050
   30      C      -2.1016583842    -1.2854174156    -2.6078709860
   31      C      -2.2813858388    -2.6227705817    -2.2230847504
   32      C      -2.7030753241    -0.7842215781    -3.8926416052
   33      H      -2.3968770615     0.2389712547    -4.1077872244
   34      H      -3.7943626664    -0.7997733666    -3.8580418178
   35      H      -2.4032333537    -1.4010056317    -4.7429103204
   36      C      -1.8923846735    -4.4775422639    -0.5481467815
   37      H      -1.0039416525    -4.8045702654    -0.0021800806
   38      H      -1.9883336070    -5.1594893210    -1.3975661116
   39      C      -3.1165820681    -4.6186046104     0.3543751789
   40      H      -4.0307709316    -4.3411631224    -0.1710840169
   41      H      -3.2313842497    -5.6470303039     0.6985267566
   42      H      -3.0314580613    -3.9783985818     1.2334017162
   43      B      -3.1648619508    -3.5700976712    -3.1140611421
   44      C      -4.7194120020    -3.4856690545    -3.0036494710
   45      C      -5.3201506887    -2.6156322399    -2.0857112183
   46      H      -4.6998732774    -2.0014337463    -1.4423498056
   47      C      -6.6999890589    -2.5411467759    -1.9990600971
   48      C      -7.5013410439    -3.3485624804    -2.8363385462
   49      C      -6.9215036899    -4.2124407745    -3.7431707704
   50      H      -7.5422796303    -4.8289180847    -4.3837222177
   51      C      -5.5319154699    -4.2915238401    -3.8375219508
   52      C      -7.5979034503    -1.7385583173    -1.1606419361
   53      C      -7.4419086779    -0.7920128055    -0.1823860742
   54      H      -6.4637770309    -0.4665264120     0.1491604123
   55      C      -8.9081001524    -2.0997837797    -1.5313389393
   56      C     -10.0651007336    -1.5642363584    -0.9747040759
   57      C      -8.9059372860    -3.0742448587    -2.5448366902
   58      C     -10.1050815625    -3.5356178159    -3.0236205851
   59      H     -10.1609144023    -4.2851495601    -3.8037839149
   60      C      -8.6005141609    -0.2270936425     0.4054008479
   61      H      -8.4730790587     0.5205068644     1.1773079331
   62      C      -9.8743270778    -0.5898015346     0.0337000773
   63      H     -10.7298852732    -0.1288629667     0.5121398551
   64      C     -11.2928353576    -2.0552563165    -1.4833622430
   65      H     -12.2304188983    -1.6792560496    -1.0921657377
   66      C     -11.2982378223    -3.0091620208    -2.4747851155
   67      H     -12.2458928032    -3.3723107995    -2.8512191389
   68      C      -2.5182801500    -4.5734960991    -4.1184566713
   69      C      -1.1257664474    -4.6809082474    -4.2212347402
   70      H      -0.4930646625    -4.0512162168    -3.6054547607
   71      C      -0.5608991295    -5.5919816093    -5.0997743385
   72      C      -1.3957237091    -6.4050541188    -5.8973817264
   73      C      -2.7701815095    -6.2987365184    -5.8158246691
   74      H      -3.4057750600    -6.9221621538    -6.4353039596
   75      C      -3.3460958102    -5.3876754071    -4.9313849615
   76      C       0.8296289820    -5.9392562447    -5.4147196598
   77      C       2.0637746267    -5.5242927850    -4.9899870836
   78      H       2.1822534991    -4.7521393971    -4.2402342194
   79      C       0.7701316108    -6.9513886647    -6.3933495939
   80      C       1.8761659093    -7.5671468578    -6.9672794859
   81      C      -0.5593493437    -7.2694620379    -6.7213665593
   82      C      -0.8011040805    -8.2383182669    -7.6598833856
   83      H      -1.8067462094    -8.5204356194    -7.9475075875
   84      C       3.2120825182    -6.1316544392    -5.5545850940
   85      H       4.1858208356    -5.8022061935    -5.2166059550
   86      C       3.1382973491    -7.1189181870    -6.5099676782
   87      H       4.0466422294    -7.5520617857    -6.9103566818
   88      C       1.6051772739    -8.5656089926    -7.9354409788
   89      H       2.4224910236    -9.0842858707    -8.4214166924
   90      C       0.3060276475    -8.8806956869    -8.2617523237
   91      H       0.1203823911    -9.6464298759    -9.0038055775
   92      B      -4.8926293195    -5.2715939332    -4.8567999109
   93      C      -5.8078626868    -6.1428328206    -5.7938291434
   94      C      -6.2275679745    -5.6633664489    -7.0371558174
   95      C      -7.0382779923    -6.4442116833    -7.8534260204
   96      H      -7.3450525862    -6.0627587737    -8.8213952340
   97      C      -7.4616388267    -7.7013453072    -7.4454821044
   98      C      -7.0534008195    -8.1778557232    -6.2021114941
   99      H      -7.3865980881    -9.1533129833    -5.8669006930
  100      C      -6.2298842432    -7.4180381096    -5.3853262055
  101      N      -8.2981230929    -8.4771435292    -8.2710637016
  102      C      -9.3572656859    -7.8662382636    -8.9622002544
  103      C      -9.6204721884    -8.1971251167   -10.2911594070
  104      H      -9.0001606468    -8.9260857474   -10.7970624939
  105      C     -10.6721655090    -7.5978498537   -10.9654202181
  106      H     -10.8624839793    -7.8668478866   -11.9966015223
  107      C     -11.4642360179    -6.6473498410   -10.3370976826
  108      H     -12.2789486648    -6.1748668213   -10.8695690485
  109      C     -11.1978815164    -6.3101032779    -9.0173149195
  110      H     -11.8110450371    -5.5752146796    -8.5116043503
  111      C     -10.1615338929    -6.9193558201    -8.3290410715
  112      H      -9.9708438480    -6.6598454633    -7.2956893668
  113      C      -8.0670388122    -9.8536193892    -8.4214778473
  114      C      -9.1358655361   -10.7503832518    -8.4475649752
  115      H     -10.1488983700   -10.3833094803    -8.3423512744
  116      C      -8.9076523352   -12.1069939228    -8.6093507401
  117      H      -9.7496672486   -12.7871643310    -8.6282835297
  118      C      -7.6146172323   -12.5975414485    -8.7267270472
  119      H      -7.4397279015   -13.6586426103    -8.8448331058
  120      C      -6.5493437810   -11.7088749943    -8.6900391944
  121      H      -5.5350454223   -12.0746508200    -8.7860451009
  122      C      -6.7692516907   -10.3479984944    -8.5494231161
  123      H      -5.9308774567    -9.6634202857    -8.5392764688
  124      C      -5.8116236836    -7.9548724358    -4.0450350016
  125      H      -6.2011491718    -8.9579412217    -3.8742799648
  126      H      -4.7242483859    -8.0053667029    -3.9556220185
  127      H      -6.1698938301    -7.3203474633    -3.2312759833
  128      C      -5.7702914829    -4.3237138580    -7.5558728348
  129      H      -6.6210632288    -3.7893523999    -7.9871369832
  130      H      -5.4131291569    -3.6956731947    -6.7347395418
  131      C      -4.6708391214    -4.4546803035    -8.6071714745
  132      H      -3.7915528084    -4.9524466497    -8.1975152879
  133      H      -5.0137586664    -5.0369809599    -9.4632496606
  134      H      -4.3599662724    -3.4755972488    -8.9728522146
 ----------------------------------------------------------------

   14   -3006.3433620928      4.99E-10 Convergence criterion met
 Total energy in the final basis set = -3006.34336209
 Final energy is   -3006.34336209279
 **  OPTIMIZATION CONVERGED  **

                    Orbital Energies (a.u.)
 --------------------------------------------------------------

 Alpha MOs
 -- Occupied --
-14.670 -14.669 -10.491 -10.490 -10.490 -10.490 -10.485 -10.484
-10.465 -10.464 -10.464 -10.464 -10.464 -10.464 -10.464 -10.464
-10.462 -10.462 -10.462 -10.462 -10.461 -10.461 -10.461 -10.461
-10.460 -10.460 -10.458 -10.458 -10.458 -10.458 -10.455 -10.454
-10.453 -10.453 -10.452 -10.452 -10.450 -10.450 -10.448 -10.448
-10.448 -10.448 -10.448 -10.447 -10.447 -10.447 -10.447 -10.447
-10.445 -10.445 -10.444 -10.444 -10.444 -10.444 -10.444 -10.444
-10.443 -10.442 -10.442 -10.442 -10.435 -10.435 -10.435 -10.434
-10.434 -10.434 -10.434 -10.433 -10.433 -10.433 -10.426 -10.425
-10.421 -10.420 -10.420 -10.419  -6.950  -6.948  -1.079  -1.079
 -1.016  -1.016  -0.964  -0.960  -0.960  -0.960  -0.959  -0.959
 -0.939  -0.939  -0.933  -0.932  -0.909  -0.901  -0.883  -0.882
 -0.864  -0.860  -0.854  -0.853  -0.850  -0.850  -0.846  -0.846
 -0.838  -0.838  -0.837  -0.837  -0.822  -0.815  -0.814  -0.813
 -0.812  -0.804  -0.793  -0.792  -0.765  -0.764  -0.734  -0.730
 -0.726  -0.720  -0.712  -0.712  -0.707  -0.706  -0.699  -0.697
 -0.688  -0.682  -0.681  -0.681  -0.679  -0.675  -0.668  -0.665
 -0.649  -0.647  -0.640  -0.639  -0.635  -0.634  -0.605  -0.605
 -0.595  -0.594  -0.591  -0.588  -0.587  -0.586  -0.583  -0.575
 -0.573  -0.562  -0.561  -0.552  -0.552  -0.544  -0.543  -0.541
 -0.541  -0.537  -0.527  -0.524  -0.522  -0.522  -0.516  -0.511
 -0.509  -0.508  -0.502  -0.500  -0.499  -0.498  -0.497  -0.495
 -0.495  -0.493  -0.492  -0.488  -0.485  -0.485  -0.483  -0.483
 -0.483  -0.481  -0.481  -0.480  -0.478  -0.476  -0.475  -0.472
 -0.468  -0.466  -0.466  -0.461  -0.456  -0.452  -0.448  -0.445
 -0.441  -0.440  -0.439  -0.437  -0.432  -0.430  -0.429  -0.426
 -0.426  -0.425  -0.424  -0.421  -0.420  -0.419  -0.417  -0.412
 -0.412  -0.410  -0.405  -0.404  -0.399  -0.399  -0.397  -0.397
 -0.396  -0.395  -0.395  -0.394  -0.392  -0.391  -0.389  -0.386
 -0.379  -0.375  -0.373  -0.368  -0.358  -0.356  -0.352  -0.351
 -0.343  -0.341  -0.319  -0.313  -0.304  -0.304  -0.299  -0.299
 -0.296  -0.295  -0.295  -0.294  -0.286  -0.284  -0.281  -0.274
 -0.274  -0.262  -0.257  -0.256  -0.221  -0.220

          Ground-State Mulliken Net Atomic Charges

     Atom                 Charge (a.u.)
  ----------------------------------------
      1 N                    -0.674522
      2 C                     0.293461
      3 C                    -0.287871
      4 H                     0.253702
      5 C                    -0.228877
      6 H                     0.235450
      7 C                    -0.252948
      8 H                     0.232465
      9 C                    -0.228830
     10 H                     0.234613
     11 C                    -0.286128
     12 H                     0.250894
     13 C                     0.282831
     14 C                    -0.280319
     15 H                     0.251952
     16 C                    -0.229288
     17 H                     0.235453
     18 C                    -0.251003
     19 H                     0.233152
     20 C                    -0.229952
     21 H                     0.235837
     22 C                    -0.283339
     23 H                     0.253028
     24 C                     0.314866
     25 C                    -0.366721
     26 H                     0.242306
     27 C                     0.074792
     28 C                    -0.375883
     29 H                     0.244474
     30 C                     0.048908
     31 C                    -0.221382
     32 C                    -0.767705
     33 H                     0.247120
     34 H                     0.249626
     35 H                     0.247590
     36 C                    -0.551396
     37 H                     0.237205
     38 H                     0.252000
     39 C                    -0.652149
     40 H                     0.239191
     41 H                     0.224318
     42 H                     0.219753
     43 B                     0.685231
     44 C                    -0.151685
     45 C                    -0.400381
     46 H                     0.244258
     47 C                     0.100593
     48 C                     0.080888
     49 C                    -0.385240
     50 H                     0.238131
     51 C                    -0.158837
     52 C                     0.190064
     53 C                    -0.392650
     54 H                     0.235434
     55 C                    -0.064498
     56 C                     0.236824
     57 C                     0.188669
     58 C                    -0.383848
     59 H                     0.234638
     60 C                    -0.218128
     61 H                     0.242413
     62 C                    -0.344142
     63 H                     0.238291
     64 C                    -0.340373
     65 H                     0.237977
     66 C                    -0.220514
     67 H                     0.242651
     68 C                    -0.158405
     69 C                    -0.395300
     70 H                     0.237699
     71 C                     0.105623
     72 C                     0.078372
     73 C                    -0.392264
     74 H                     0.241118
     75 C                    -0.146901
     76 C                     0.187876
     77 C                    -0.392141
     78 H                     0.236310
     79 C                    -0.063937
     80 C                     0.238280
     81 C                     0.188991
     82 C                    -0.383360
     83 H                     0.235108
     84 C                    -0.218002
     85 H                     0.242552
     86 C                    -0.345117
     87 H                     0.238261
     88 C                    -0.340493
     89 H                     0.237939
     90 C                    -0.220863
     91 H                     0.242697
     92 B                     0.683207
     93 C                    -0.231373
     94 C                     0.071318
     95 C                    -0.362353
     96 H                     0.241322
     97 C                     0.307959
     98 C                    -0.368023
     99 H                     0.242323
    100 C                     0.056984
    101 N                    -0.674731
    102 C                     0.289959
    103 C                    -0.287510
    104 H                     0.254026
    105 C                    -0.229019
    106 H                     0.235488
    107 C                    -0.252443
    108 H                     0.232544
    109 C                    -0.228799
    110 H                     0.233928
    111 C                    -0.282339
    112 H                     0.249388
    113 C                     0.295729
    114 C                    -0.289005
    115 H                     0.254013
    116 C                    -0.228247
    117 H                     0.235321
    118 C                    -0.253341
    119 H                     0.232343
    120 C                    -0.227900
    121 H                     0.233595
    122 C                    -0.286451
    123 H                     0.249367
    124 C                    -0.766930
    125 H                     0.246580
    126 H                     0.247004
    127 H                     0.247572
    128 C                    -0.552822
    129 H                     0.240266
    130 H                     0.254302
    131 C                    -0.648058
    132 H                     0.234390
    133 H                     0.219357
    134 H                     0.224571
  ----------------------------------------
  Sum of atomic charges =    -0.000000

                    Cartesian Multipole Moments
 -----------------------------------------------------------------
    Charge (ESU x 10^10)
                -0.0000
    Dipole Moment (Debye)
         X       0.0555      Y       0.0850      Z      -0.0521
       Tot       0.1141
    Quadrupole Moments (Debye-Ang)
        XX    -389.0543     XY     -11.7643     YY    -422.1542
        XZ     -11.0668     YZ      23.7389     ZZ    -422.8315

 Total job time:  67447.01s(wall), 161321.30s(cpu)
        *  Thank you very much for using Q-Chem.  Have a nice day.  *
