 Q-Chem 5.0, Q-Chem, Inc., Pleasanton, CA (2017)
 Q-Chem 5.0.1 for Intel X86 EM64T Linux

User input:
--------------------------------------------------------------
$rem
threads 4
jobtype	opt
method PBEh-3c
basis def2-mSVP
mem_static	1024
mem_total	4000
sym_ignore	true
scf_convergence	9
solvent_method	pcm
$end

$molecule
read gsopt.mol
$end

$solvent
dielectric	4.33
$end

$pcm
theory iefpcm
$end
--------------------------------------------------------------

   17   -3006.3522136290      3.90E-10 Convergence criterion met
 Total energy in the final basis set = -3006.35221363
   15   -3006.3522831010      4.94E-10 Convergence criterion met
 Total energy in the final basis set = -3006.35228310
   15   -3006.3521282828      4.68E-10 Convergence criterion met
 Total energy in the final basis set = -3006.35212828
   14   -3006.3521456134      9.78E-10 Convergence criterion met
 Total energy in the final basis set = -3006.35214561
   15   -3006.3518267760      4.52E-10 Convergence criterion met
 Total energy in the final basis set = -3006.35182678
   14   -3006.3520984876      9.87E-10 Convergence criterion met
 Total energy in the final basis set = -3006.35209849
   14   -3006.3520730585      9.87E-10 Convergence criterion met
 Total energy in the final basis set = -3006.35207306
   14   -3006.3520633318      9.07E-10 Convergence criterion met
   14   -3006.3522055721      8.18E-10 Convergence criterion met
 Total energy in the final basis set = -3006.35220557
   14   -3006.3522063145      7.35E-10 Convergence criterion met
 Total energy in the final basis set = -3006.35220631
   14   -3006.3522267277      6.92E-10 Convergence criterion met
 Total energy in the final basis set = -3006.35222673
   14   -3006.3522309559      6.92E-10 Convergence criterion met
 Total energy in the final basis set = -3006.35223096
   14   -3006.3522464351      6.88E-10 Convergence criterion met
 Total energy in the final basis set = -3006.35224644
   14   -3006.3522332049      6.82E-10 Convergence criterion met
 Total energy in the final basis set = -3006.35223320

             Standard Nuclear Orientation (Angstroms)
    I     Atom           X                Y                Z
 ----------------------------------------------------------------
    1      N      -0.0819852349     0.0413321862     0.1986041434
    2      C      -0.1930302179    -0.0175339470     1.5987248775
    3      C       0.9351960740     0.1467866108     2.4018312383
    4      H       1.9019415976     0.3121412229     1.9434687132
    5      C       0.8235347631     0.0958612940     3.7821962655
    6      H       1.7095495299     0.2252338580     4.3904081729
    7      C      -0.4056541470    -0.1378771372     4.3834604231
    8      H      -0.4882958879    -0.1864212163     5.4611027639
    9      C      -1.5285176558    -0.3081528313     3.5848113574
   10      H      -2.4958128962    -0.4830996473     4.0384645843
   11      C      -1.4298935270    -0.2388019659     2.2047747371
   12      H      -2.3153558189    -0.3603075606     1.5936756891
   13      C       0.7235572708     1.0308025172    -0.3939721739
   14      C       1.5722849378     0.7082170521    -1.4524192889
   15      H       1.6187848163    -0.3117352897    -1.8129118189
   16      C       2.3497468554     1.6886932516    -2.0470260348
   17      H       3.0007288582     1.4231435989    -2.8702015977
   18      C       2.3099885347     2.9974892286    -1.5851881737
   19      H       2.9230696511     3.7593744060    -2.0480886477
   20      C       1.4740005158     3.3175859092    -0.5242346858
   21      H       1.4264003903     4.3352450435    -0.1584818079
   22      C       0.6781929078     2.3466557255     0.0631115790
   23      H       0.0160731277     2.6100376644     0.8782696875
   24      C      -0.8076886658    -0.8495574912    -0.6120409789
   25      C      -0.9595836874    -2.1813587333    -0.2441822137
   26      H      -0.4984473552    -2.5440259859     0.6676067286
   27      C      -1.6989025398    -3.0605342686    -1.0281503505
   28      C      -1.3849270532    -0.4131128204    -1.8031827286
   29      H      -1.2722741898     0.6201328034    -2.1091287399
   30      C      -2.1037449766    -1.2851006394    -2.6079823711
   31      C      -2.2831129927    -2.6221533478    -2.2215368465
   32      C      -2.7073711907    -0.7843084281    -3.8919262020
   33      H      -2.3989974490     0.2377458898    -4.1093507154
   34      H      -3.7986059521    -0.7966159283    -3.8535739707
   35      H      -2.4122905186    -1.4032978337    -4.7423080501
   36      C      -1.8925659140    -4.4749391089    -0.5442505683
   37      H      -1.0031797761    -4.8014482484     0.0003637599
   38      H      -1.9909677310    -5.1578084589    -1.3926655287
   39      C      -3.1148034022    -4.6147515536     0.3611928647
   40      H      -4.0299262240    -4.3363138359    -0.1622665230
   41      H      -3.2294289960    -5.6431912116     0.7054060839
   42      H      -3.0270987831    -3.9747140932     1.2401466534
   43      B      -3.1658708527    -3.5708482533    -3.1119888875
   44      C      -4.7206495670    -3.4886251636    -3.0014747677
   45      C      -5.3223623297    -2.6209737923    -2.0817410093
   46      H      -4.7040190594    -2.0068932415    -1.4364665664
   47      C      -6.7025489990    -2.5481666135    -1.9949663039
   48      C      -7.5031265809    -3.3541049140    -2.8348783857
   49      C      -6.9222193447    -4.2157423372    -3.7435709396
   50      H      -7.5436363626    -4.8308425438    -4.3848022287
   51      C      -5.5323827834    -4.2937839004    -3.8373238179
   52      C      -7.6012688985    -1.7489090982    -1.1542309058
   53      C      -7.4460983314    -0.8053870621    -0.1723965713
   54      H      -6.4683503372    -0.4803528874     0.1608553677
   55      C      -8.9110957513    -2.1102813406    -1.5267456553
   56      C     -10.0689669516    -1.5774053443    -0.9686723767
   57      C      -8.9080950311    -3.0816500227    -2.5434367967
   58      C     -10.1068836643    -3.5424490482    -3.0247558208
   59      H     -10.1619279406    -4.2893377471    -3.8075744636
   60      C      -8.6057639449    -0.2435201412     0.4169051931
   61      H      -8.4791531699     0.5014416073     1.1915241961
   62      C      -9.8795378627    -0.6060619563     0.0433579182
   63      H     -10.7358643119    -0.1476454772     0.5228949021
   64      C     -11.2964735885    -2.0675579145    -1.4795136758
   65      H     -12.2343508628    -1.6933063490    -1.0872836252
   66      C     -11.3007634638    -3.0183054231    -2.4745510753
   67      H     -12.2479743210    -3.3807319759    -2.8528458304
   68      C      -2.5180338803    -4.5737479606    -4.1164476293
   69      C      -1.1252554779    -4.6814047782    -4.2173864047
   70      H      -0.4918736100    -4.0527778232    -3.6012394138
   71      C      -0.5593429231    -5.5929373221    -5.0952394314
   72      C      -1.3934560972    -6.4060688262    -5.8940293492
   73      C      -2.7682606098    -6.2991752648    -5.8145796017
   74      H      -3.4018996836    -6.9231925516    -6.4353774672
   75      C      -3.3451042483    -5.3878819917    -4.9307890705
   76      C       0.8315626513    -5.9409968914    -5.4075967894
   77      C       2.0654495990    -5.5262791001    -4.9806703854
   78      H       2.1832219830    -4.7535527024    -4.2313343368
   79      C       0.7728460557    -6.9539008342    -6.3857214062
   80      C       1.8797134146    -7.5711775749    -6.9570736661
   81      C      -0.5563219966    -7.2716144143    -6.7160615653
   82      C      -0.7973665511    -8.2415820309    -7.6541733942
   83      H      -1.8026916188    -8.5235518094    -7.9432004026
   84      C       3.2144287856    -6.1352050929    -5.5429032069
   85      H       4.1877642311    -5.8060826398    -5.2033858279
   86      C       3.1416677269    -7.1235761986    -6.4978196521
   87      H       4.0502650458    -7.5579846455    -6.8963208630
   88      C       1.6099641203    -8.5706954648    -7.9248983433
   89      H       2.4280626888    -9.0903180065    -8.4085954626
   90      C       0.3107957315    -8.8853587529    -8.2533069176
   91      H       0.1259034021    -9.6518637883    -8.9947806002
   92      B      -4.8918951065    -5.2722964526    -4.8577075889
   93      C      -5.8064918098    -6.1428395662    -5.7961434868
   94      C      -6.2238903133    -5.6630583744    -7.0402127012
   95      C      -7.0359203957    -6.4425161416    -7.8569084032
   96      H      -7.3404849412    -6.0602911373    -8.8253087792
   97      C      -7.4621853334    -7.6987166548    -7.4486949042
   98      C      -7.0553786113    -8.1760157576    -6.2049636731
   99      H      -7.3904499662    -9.1506406441    -5.8689795414
  100      C      -6.2310474946    -7.4173593173    -5.3875483788
  101      N      -8.3002990041    -8.4727850538    -8.2743158590
  102      C      -9.3593398797    -7.8596577632    -8.9640907062
  103      C      -9.6222365842    -8.1868939415   -10.2941995207
  104      H      -9.0020914537    -8.9141671275   -10.8028888666
  105      C     -10.6737778076    -7.5853563621   -10.9673809666
  106      H     -10.8637907761    -7.8514698654   -11.9994261370
  107      C     -11.4658867534    -6.6361059048   -10.3364405003
  108      H     -12.2803987191    -6.1619036799   -10.8678402955
  109      C     -11.1997822971    -6.3025003634    -9.0152977175
  110      H     -11.8129298179    -5.5689851377    -8.5074771022
  111      C     -10.1635121776    -6.9141334998    -8.3283177260
  112      H      -9.9742345150    -6.6571545728    -7.2939630227
  113      C      -8.0703111641    -9.8493735002    -8.4271152050
  114      C      -9.1400133180   -10.7454429417    -8.4515087295
  115      H     -10.1528299124   -10.3786263419    -8.3425542910
  116      C      -8.9132733472   -12.1023049088    -8.6160906874
  117      H      -9.7558968578   -12.7818495570    -8.6337002049
  118      C      -7.6205381922   -12.5935967650    -8.7379064939
  119      H      -7.4466834274   -13.6546803976    -8.8583338834
  120      C      -6.5542486098   -11.7055162450    -8.7027397641
  121      H      -5.5403692149   -12.0716418931    -8.8023348459
  122      C      -6.7729591738   -10.3443800615    -8.5592532653
  123      H      -5.9333259844    -9.6611528201    -8.5509154384
  124      C      -5.8148540186    -7.9552133983    -4.0469994774
  125      H      -6.2070415452    -8.9573048744    -3.8766111906
  126      H      -4.7276162478    -8.0082495337    -3.9570742659
  127      H      -6.1720747201    -7.3197858012    -3.2334507862
  128      C      -5.7632811926    -4.3246834378    -7.5594234586
  129      H      -6.6133022869    -3.7864219120    -7.9871926504
  130      H      -5.3998227564    -3.6989381779    -6.7392446716
  131      C      -4.6687338979    -4.4592775118    -8.6154394520
  132      H      -3.7913449555    -4.9648822395    -8.2110701365
  133      H      -5.0191457536    -5.0358754527    -9.4723881081
  134      H      -4.3529692751    -3.4807826605    -8.9785402731
 ----------------------------------------------------------------

   14   -3006.3522324980      6.89E-10 Convergence criterion met
 Total energy in the final basis set = -3006.35223250
 Final energy is   -3006.35223249798
 **  OPTIMIZATION CONVERGED  **

                    Orbital Energies (a.u.)
 --------------------------------------------------------------

 Alpha MOs
 -- Occupied --
-14.671 -14.671 -10.492 -10.492 -10.492 -10.491 -10.487 -10.486
-10.466 -10.466 -10.465 -10.465 -10.465 -10.465 -10.464 -10.464
-10.464 -10.464 -10.463 -10.463 -10.461 -10.461 -10.461 -10.461
-10.461 -10.461 -10.458 -10.458 -10.458 -10.458 -10.457 -10.456
-10.454 -10.454 -10.454 -10.454 -10.452 -10.452 -10.449 -10.449
-10.449 -10.449 -10.448 -10.448 -10.448 -10.448 -10.448 -10.448
-10.446 -10.446 -10.446 -10.446 -10.445 -10.445 -10.445 -10.445
-10.444 -10.443 -10.443 -10.443 -10.437 -10.437 -10.437 -10.436
-10.436 -10.435 -10.435 -10.435 -10.435 -10.434 -10.426 -10.426
-10.422 -10.421 -10.420 -10.420  -6.952  -6.950  -1.080  -1.080
 -1.017  -1.017  -0.965  -0.962  -0.962  -0.961  -0.961  -0.960
 -0.941  -0.941  -0.933  -0.933  -0.910  -0.902  -0.884  -0.883
 -0.865  -0.862  -0.855  -0.854  -0.851  -0.851  -0.847  -0.846
 -0.839  -0.839  -0.838  -0.838  -0.823  -0.816  -0.815  -0.814
 -0.813  -0.806  -0.794  -0.793  -0.766  -0.765  -0.735  -0.730
 -0.727  -0.721  -0.714  -0.713  -0.708  -0.707  -0.700  -0.699
 -0.689  -0.683  -0.682  -0.682  -0.679  -0.676  -0.669  -0.666
 -0.650  -0.648  -0.641  -0.640  -0.636  -0.636  -0.606  -0.606
 -0.595  -0.595  -0.591  -0.588  -0.588  -0.587  -0.583  -0.575
 -0.574  -0.563  -0.562  -0.554  -0.553  -0.545  -0.543  -0.542
 -0.542  -0.538  -0.528  -0.524  -0.523  -0.523  -0.517  -0.512
 -0.510  -0.509  -0.503  -0.501  -0.500  -0.499  -0.497  -0.496
 -0.496  -0.494  -0.493  -0.489  -0.487  -0.486  -0.484  -0.484
 -0.484  -0.482  -0.481  -0.481  -0.478  -0.477  -0.476  -0.473
 -0.469  -0.467  -0.466  -0.462  -0.457  -0.452  -0.448  -0.446
 -0.442  -0.441  -0.440  -0.438  -0.433  -0.431  -0.430  -0.428
 -0.427  -0.426  -0.425  -0.422  -0.421  -0.420  -0.418  -0.413
 -0.412  -0.411  -0.406  -0.405  -0.400  -0.400  -0.398  -0.397
 -0.397  -0.396  -0.396  -0.394  -0.393  -0.392  -0.390  -0.387
 -0.381  -0.376  -0.374  -0.369  -0.359  -0.358  -0.354  -0.353
 -0.345  -0.342  -0.321  -0.315  -0.306  -0.305  -0.301  -0.301
 -0.298  -0.296  -0.296  -0.295  -0.288  -0.286  -0.282  -0.276
 -0.276  -0.263  -0.259  -0.257  -0.222  -0.222

          Ground-State Mulliken Net Atomic Charges

     Atom                 Charge (a.u.)
  ----------------------------------------
      1 N                    -0.674117
      2 C                     0.292919
      3 C                    -0.292703
      4 H                     0.257658
      5 C                    -0.236087
      6 H                     0.243140
      7 C                    -0.260243
      8 H                     0.240066
      9 C                    -0.236053
     10 H                     0.242567
     11 C                    -0.290827
     12 H                     0.255741
     13 C                     0.282642
     14 C                    -0.285198
     15 H                     0.256520
     16 C                    -0.236465
     17 H                     0.243302
     18 C                    -0.258149
     19 H                     0.240777
     20 C                    -0.237099
     21 H                     0.243535
     22 C                    -0.288094
     23 H                     0.257056
     24 C                     0.315535
     25 C                    -0.369976
     26 H                     0.245810
     27 C                     0.071855
     28 C                    -0.380051
     29 H                     0.248133
     30 C                     0.045626
     31 C                    -0.221089
     32 C                    -0.770661
     33 H                     0.251067
     34 H                     0.250033
     35 H                     0.248841
     36 C                    -0.551707
     37 H                     0.240610
     38 H                     0.251804
     39 C                    -0.655304
     40 H                     0.237768
     41 H                     0.226863
     42 H                     0.221347
     43 B                     0.683863
     44 C                    -0.152425
     45 C                    -0.400610
     46 H                     0.248105
     47 C                     0.095429
     48 C                     0.075911
     49 C                    -0.387116
     50 H                     0.242517
     51 C                    -0.159321
     52 C                     0.184925
     53 C                    -0.395351
     54 H                     0.244361
     55 C                    -0.065485
     56 C                     0.227936
     57 C                     0.183487
     58 C                    -0.386779
     59 H                     0.243758
     60 C                    -0.225841
     61 H                     0.250732
     62 C                    -0.347365
     63 H                     0.247612
     64 C                    -0.343678
     65 H                     0.247301
     66 C                    -0.228159
     67 H                     0.251099
     68 C                    -0.158746
     69 C                    -0.396906
     70 H                     0.241984
     71 C                     0.100336
     72 C                     0.073425
     73 C                    -0.392549
     74 H                     0.245082
     75 C                    -0.148035
     76 C                     0.182696
     77 C                    -0.394754
     78 H                     0.245130
     79 C                    -0.064942
     80 C                     0.229432
     81 C                     0.184001
     82 C                    -0.386236
     83 H                     0.244256
     84 C                    -0.225719
     85 H                     0.250872
     86 C                    -0.348311
     87 H                     0.247549
     88 C                    -0.343838
     89 H                     0.247228
     90 C                    -0.228504
     91 H                     0.251128
     92 B                     0.681877
     93 C                    -0.230833
     94 C                     0.067796
     95 C                    -0.365554
     96 H                     0.245011
     97 C                     0.308453
     98 C                    -0.372243
     99 H                     0.246276
    100 C                     0.054327
    101 N                    -0.674315
    102 C                     0.289837
    103 C                    -0.292241
    104 H                     0.257922
    105 C                    -0.236173
    106 H                     0.243127
    107 C                    -0.259807
    108 H                     0.240126
    109 C                    -0.236104
    110 H                     0.242030
    111 C                    -0.287760
    112 H                     0.254465
    113 C                     0.295575
    114 C                    -0.293781
    115 H                     0.257915
    116 C                    -0.235396
    117 H                     0.242977
    118 C                    -0.260738
    119 H                     0.239941
    120 C                    -0.235264
    121 H                     0.241767
    122 C                    -0.291936
    123 H                     0.254375
    124 C                    -0.770023
    125 H                     0.250576
    126 H                     0.247840
    127 H                     0.248395
    128 C                    -0.553093
    129 H                     0.243031
    130 H                     0.254674
    131 C                    -0.651871
    132 H                     0.233310
    133 H                     0.221580
    134 H                     0.227053
  ----------------------------------------
  Sum of atomic charges =    -0.000000

                    Cartesian Multipole Moments
 -----------------------------------------------------------------
    Charge (ESU x 10^10)
                -0.0000
    Dipole Moment (Debye)
         X       0.0426      Y       0.0786      Z      -0.0426
       Tot       0.0990
    Quadrupole Moments (Debye-Ang)
        XX    -383.7154     XY     -12.4763     YY    -419.1614
        XZ     -11.6854     YZ      25.4964     ZZ    -419.8124

 Total job time:  67996.64s(wall), 162811.55s(cpu)
        *  Thank you very much for using Q-Chem.  Have a nice day.  *
