 Q-Chem 5.0, Q-Chem, Inc., Pleasanton, CA (2017)
 Q-Chem 5.0.1 for Intel X86 EM64T Linux

User input:
--------------------------------------------------------------
$rem
threads 4
jobtype	opt
method PBEh-3c
basis def2-mSVP
mem_static	1024
mem_total	4000
sym_ignore	true
scf_convergence	9
solvent_method	pcm
$end

$molecule
read gsopt.mol
$end

$solvent
dielectric	2.03
$end

$pcm
theory iefpcm
$end
--------------------------------------------------------------

   17   -3006.3405565910      4.73E-10 Convergence criterion met
 Total energy in the final basis set = -3006.34055659
   15   -3006.3405662004      4.67E-10 Convergence criterion met
 Total energy in the final basis set = -3006.34056620
   14   -3006.3403684791      8.74E-10 Convergence criterion met
 Total energy in the final basis set = -3006.34036848
   14   -3006.3403839938      7.78E-10 Convergence criterion met
 Total energy in the final basis set = -3006.34038399
   15   -3006.3401201196      5.26E-10 Convergence criterion met
 Total energy in the final basis set = -3006.34012012
   14   -3006.3404182205      6.81E-10 Convergence criterion met
 Total energy in the final basis set = -3006.34041822
   14   -3006.3404246774      8.24E-10 Convergence criterion met
 Total energy in the final basis set = -3006.34042468
   14   -3006.3404356947      6.59E-10 Convergence criterion met
 Total energy in the final basis set = -3006.34043569
   14   -3006.3404060217      5.68E-10 Convergence criterion met
 Total energy in the final basis set = -3006.34040602
   14   -3006.3405372632      5.87E-10 Convergence criterion met
 Total energy in the final basis set = -3006.34053726
   14   -3006.3405272128      4.97E-10 Convergence criterion met
 Total energy in the final basis set = -3006.34052721
   14   -3006.3405353243      4.57E-10 Convergence criterion met
 Total energy in the final basis set = -3006.34053532

             Standard Nuclear Orientation (Angstroms)
    I     Atom           X                Y                Z
 ----------------------------------------------------------------
    1      N      -0.0830632443     0.0358677993     0.2045734472
    2      C      -0.1972944393    -0.0253236225     1.6039917884
    3      C       0.9276256778     0.1441440427     2.4103661728
    4      H       1.8939663664     0.3162183392     1.9539268621
    5      C       0.8126417998     0.0901118503     3.7898566154
    6      H       1.6962546790     0.2235511806     4.4005517307
    7      C      -0.4161430663    -0.1518179861     4.3876018971
    8      H      -0.5010916773    -0.2029796613     5.4648420739
    9      C      -1.5355018604    -0.3271152696     3.5860150908
   10      H      -2.5027050425    -0.5088511896     4.0370456495
   11      C      -1.4340343602    -0.2547076562     2.2067798835
   12      H      -2.3163341008    -0.3808686216     1.5923125315
   13      C       0.7229738931     1.0259191540    -0.3851727969
   14      C       1.5675941777     0.7069527266    -1.4478147245
   15      H       1.6092878865    -0.3113773973    -1.8130933668
   16      C       2.3448108790     1.6883669351    -2.0401023178
   17      H       2.9922036261     1.4255210486    -2.8668771961
   18      C       2.3095038344     2.9946445952    -1.5721634332
   19      H       2.9225141876     3.7573952202    -2.0334916919
   20      C       1.4779588163     3.3111130274    -0.5072864266
   21      H       1.4337700717     4.3270283956    -0.1365072691
   22      C       0.6821516767     2.3395845168     0.0779589458
   23      H       0.0234791834     2.5995051756     0.8968404261
   24      C      -0.8074760162    -0.8538103649    -0.6090265647
   25      C      -0.9585625938    -2.1862734882    -0.2443486486
   26      H      -0.4978201806    -2.5494921388     0.6673509312
   27      C      -1.6973809405    -3.0637091057    -1.0300877413
   28      C      -1.3839565807    -0.4149271601    -1.7992387743
   29      H      -1.2705692972     0.6191378351    -2.1018753005
   30      C      -2.1012531666    -1.2852865374    -2.6066005911
   31      C      -2.2811256156    -2.6229021938    -2.2226698130
   32      C      -2.7008159023    -0.7837242484    -3.8920427558
   33      H      -2.4035959141     0.2434381017    -4.1007906179
   34      H      -3.7920261475    -0.8103426096    -3.8640655930
   35      H      -2.3897888207    -1.3934907398    -4.7433616732
   36      C      -1.8928468752    -4.4787464033    -0.5489937947
   37      H      -1.0052981445    -4.8062501686    -0.0018007640
   38      H      -1.9875090714    -5.1605785814    -1.3986568825
   39      C      -3.1186794868    -4.6195744797     0.3513607857
   40      H      -4.0317131877    -4.3419874707    -0.1759979054
   41      H      -3.2345648504    -5.6479416811     0.6953234309
   42      H      -3.0352652499    -3.9794031028     1.2305580428
   43      B      -3.1647749015    -3.5697980415    -3.1139502967
   44      C      -4.7191910338    -3.4860032417    -3.0037162460
   45      C      -5.3202243285    -2.6153133375    -2.0866263827
   46      H      -4.6996983885    -2.0004045898    -1.4441409413
   47      C      -6.6999868232    -2.5408553456    -2.0002458743
   48      C      -7.5008729660    -3.3496059972    -2.8365109294
   49      C      -6.9208359483    -4.2142903773    -3.7423521707
   50      H      -7.5411032379    -4.8317948977    -4.3824011033
   51      C      -5.5312823468    -4.2928868841    -3.8368469588
   52      C      -7.5983570010    -1.7372020989    -1.1633070154
   53      C      -7.4430635883    -0.7889833534    -0.1866897448
   54      H      -6.4651547217    -0.4626029288     0.1445832383
   55      C      -8.9083381353    -2.0992341934    -1.5337177993
   56      C     -10.0655744844    -1.5630173462    -0.9784285234
   57      C      -8.9055974453    -3.0752720674    -2.5456337480
   58      C     -10.1043844616    -3.5376453099    -3.0239643009
   59      H     -10.1596513016    -4.2884950999    -3.8028742085
   60      C      -8.6018513548    -0.2233014108     0.3997744319
   61      H      -8.4747893803     0.5256655446     1.1704110988
   62      C      -9.8753417327    -0.5868627862     0.0283292567
   63      H     -10.7310668103    -0.1252001061     0.5057455324
   64      C     -11.2928808603    -2.0551282611    -1.4867255712
   65      H     -12.2306757633    -1.6786722242    -1.0965015202
   66      C     -11.2977880618    -3.0106217069    -2.4764524456
   67      H     -12.2452683141    -3.3745455878    -2.8525337427
   68      C      -2.5173954641    -4.5724791444    -4.1185982293
   69      C      -1.1249539565    -4.6789442730    -4.2217335700
   70      H      -0.4930058052    -4.0492851576    -3.6051195737
   71      C      -0.5595902038    -5.5886860980    -5.1011834754
   72      C      -1.3940272535    -6.4013133481    -5.8994446999
   73      C      -2.7685139211    -6.2962242459    -5.8174239084
   74      H      -3.4040553470    -6.9195788744    -6.4370462154
   75      C      -3.3448725023    -5.3863748432    -4.9320272991
   76      C       0.8310711249    -5.9350182397    -5.4167341843
   77      C       2.0650881336    -5.5200559310    -4.9919228032
   78      H       2.1833956637    -4.7487237617    -4.2413225165
   79      C       0.7720339755    -6.9460466985    -6.3964373642
   80      C       1.8781652162    -7.5606160736    -6.9712650599
   81      C      -0.5573369665    -7.2643399081    -6.7245168010
   82      C      -0.7987978277    -8.2321539462    -7.6639704212
   83      H      -1.8043871650    -8.5142748383    -7.9517212971
   84      C       3.2135478847    -6.1261209436    -5.5573545650
   85      H       4.1871861235    -5.7965577598    -5.2192117696
   86      C       3.1400954020    -7.1122571702    -6.5137362913
   87      H       4.0486554516    -7.5443905678    -6.9146984652
   88      C       1.6073495076    -8.5580560052    -7.9403785165
   89      H       2.4247832673    -9.0758348383    -8.4270886634
   90      C       0.3084106080    -8.8733662779    -8.2667656600
   91      H       0.1230373754    -9.6383671529    -9.0096229942
   92      B      -4.8914378828    -5.2724159539    -4.8563609481
   93      C      -5.8064167926    -6.1443650835    -5.7928343186
   94      C      -6.2262954972    -5.6650829189    -7.0360943074
   95      C      -7.0365401555    -6.4462207847    -7.8524111789
   96      H      -7.3440770556    -6.0647513138    -8.8201063360
   97      C      -7.4595997804    -7.7034967354    -7.4445736313
   98      C      -7.0503209699    -8.1802184144    -6.2016020526
   99      H      -7.3828738085    -9.1559678885    -5.8666994105
  100      C      -6.2272683703    -7.4200424674    -5.3848653127
  101      N      -8.2971970345    -8.4785672776    -8.2692348263
  102      C      -9.3545099225    -7.8666112687    -8.9623147156
  103      C      -9.6174866437    -8.1994124726   -10.2907290592
  104      H      -8.9980682163    -8.9305127755   -10.7945962394
  105      C     -10.6678450804    -7.5996874356   -10.9665198944
  106      H     -10.8581604372    -7.8701926031   -11.9972821362
  107      C     -11.4586139730    -6.6468990267   -10.3403019189
  108      H     -12.2723745079    -6.1741605283   -10.8739497958
  109      C     -11.1923913179    -6.3076855173    -9.0210992907
  110      H     -11.8045912737    -5.5708306427    -8.5171282610
  111      C     -10.1574942163    -6.9173572990    -8.3312818713
  112      H      -9.9664340325    -6.6564805535    -7.2983684047
  113      C      -8.0707805837    -9.8562279063    -8.4162767230
  114      C      -9.1426295926   -10.7492782704    -8.4388562829
  115      H     -10.1541069240   -10.3780802181    -8.3334027082
  116      C      -8.9191806934   -12.1068852236    -8.5979091005
  117      H      -9.7633989695   -12.7843396288    -8.6143090314
  118      C      -7.6280011166   -12.6019047465    -8.7158386439
  119      H      -7.4567775592   -13.6638013626    -8.8319315576
  120      C      -6.5597266087   -11.7169083923    -8.6822621327
  121      H      -5.5468548619   -12.0864843860    -8.7785681893
  122      C      -6.7748608473   -10.3550904691    -8.5444058361
  123      H      -5.9345594971    -9.6728716233    -8.5362748021
  124      C      -5.8069025137    -7.9571957929    -4.0453668881
  125      H      -6.2025977789    -8.9571898791    -3.8708657091
  126      H      -4.7194710315    -8.0149776150    -3.9610232997
  127      H      -6.1569819988    -7.3187600391    -3.2311257513
  128      C      -5.7708138446    -4.3245446747    -7.5542009016
  129      H      -6.6231709354    -3.7897735816    -7.9818961627
  130      H      -5.4117023026    -3.6974461487    -6.7331820406
  131      C      -4.6738973684    -4.4530184483    -8.6082545461
  132      H      -3.7935894099    -4.9510861062    -8.2012398835
  133      H      -5.0178735493    -5.0337733060    -9.4649469065
  134      H      -4.3639940306    -3.4731620144    -8.9726545116
 ----------------------------------------------------------------

   14   -3006.3405346689      4.62E-10 Convergence criterion met
 Total energy in the final basis set = -3006.34053467
 Final energy is   -3006.34053466892
 **  OPTIMIZATION CONVERGED  **

                    Orbital Energies (a.u.)
 --------------------------------------------------------------

 Alpha MOs
 -- Occupied --
-14.669 -14.669 -10.490 -10.490 -10.490 -10.490 -10.484 -10.484
-10.464 -10.464 -10.464 -10.464 -10.464 -10.464 -10.464 -10.464
-10.462 -10.462 -10.462 -10.462 -10.461 -10.461 -10.461 -10.461
-10.460 -10.459 -10.458 -10.458 -10.458 -10.458 -10.455 -10.454
-10.452 -10.452 -10.452 -10.452 -10.449 -10.449 -10.448 -10.448
-10.447 -10.447 -10.447 -10.447 -10.447 -10.447 -10.446 -10.446
-10.445 -10.444 -10.444 -10.444 -10.444 -10.444 -10.444 -10.444
-10.443 -10.442 -10.442 -10.442 -10.435 -10.435 -10.434 -10.434
-10.434 -10.434 -10.433 -10.433 -10.433 -10.432 -10.425 -10.425
-10.420 -10.419 -10.419 -10.419  -6.950  -6.948  -1.079  -1.079
 -1.016  -1.016  -0.963  -0.960  -0.960  -0.960  -0.959  -0.958
 -0.939  -0.939  -0.933  -0.932  -0.908  -0.900  -0.882  -0.881
 -0.864  -0.860  -0.854  -0.853  -0.850  -0.850  -0.846  -0.846
 -0.838  -0.838  -0.837  -0.837  -0.822  -0.815  -0.813  -0.812
 -0.812  -0.804  -0.792  -0.792  -0.764  -0.764  -0.734  -0.730
 -0.726  -0.720  -0.712  -0.711  -0.707  -0.706  -0.698  -0.697
 -0.688  -0.682  -0.681  -0.681  -0.679  -0.674  -0.668  -0.665
 -0.649  -0.647  -0.639  -0.638  -0.635  -0.634  -0.605  -0.605
 -0.595  -0.594  -0.591  -0.588  -0.587  -0.586  -0.583  -0.575
 -0.573  -0.562  -0.561  -0.552  -0.552  -0.543  -0.543  -0.541
 -0.540  -0.537  -0.527  -0.524  -0.522  -0.522  -0.516  -0.511
 -0.509  -0.507  -0.502  -0.500  -0.499  -0.498  -0.496  -0.495
 -0.495  -0.492  -0.491  -0.488  -0.485  -0.484  -0.483  -0.483
 -0.483  -0.481  -0.481  -0.480  -0.478  -0.476  -0.475  -0.471
 -0.468  -0.467  -0.466  -0.460  -0.455  -0.452  -0.447  -0.445
 -0.441  -0.440  -0.439  -0.437  -0.431  -0.429  -0.429  -0.426
 -0.426  -0.424  -0.423  -0.421  -0.420  -0.419  -0.417  -0.412
 -0.411  -0.410  -0.405  -0.404  -0.399  -0.399  -0.397  -0.397
 -0.396  -0.395  -0.394  -0.394  -0.392  -0.391  -0.389  -0.386
 -0.379  -0.375  -0.373  -0.367  -0.357  -0.356  -0.352  -0.351
 -0.343  -0.340  -0.319  -0.313  -0.304  -0.304  -0.299  -0.299
 -0.296  -0.295  -0.294  -0.294  -0.286  -0.283  -0.280  -0.274
 -0.274  -0.262  -0.257  -0.255  -0.220  -0.220

          Ground-State Mulliken Net Atomic Charges

     Atom                 Charge (a.u.)
  ----------------------------------------
      1 N                    -0.674640
      2 C                     0.293640
      3 C                    -0.286296
      4 H                     0.252367
      5 C                    -0.226498
      6 H                     0.232952
      7 C                    -0.250556
      8 H                     0.230014
      9 C                    -0.226423
     10 H                     0.232042
     11 C                    -0.284709
     12 H                     0.249308
     13 C                     0.283000
     14 C                    -0.278797
     15 H                     0.250394
     16 C                    -0.226884
     17 H                     0.232897
     18 C                    -0.248720
     19 H                     0.230681
     20 C                    -0.227560
     21 H                     0.233325
     22 C                    -0.281932
     23 H                     0.251689
     24 C                     0.314514
     25 C                    -0.365450
     26 H                     0.241108
     27 C                     0.075753
     28 C                    -0.374442
     29 H                     0.243282
     30 C                     0.050052
     31 C                    -0.221537
     32 C                    -0.766739
     33 H                     0.245876
     34 H                     0.249489
     35 H                     0.247002
     36 C                    -0.551253
     37 H                     0.236156
     38 H                     0.251941
     39 C                    -0.651123
     40 H                     0.239596
     41 H                     0.223499
     42 H                     0.219309
     43 B                     0.685406
     44 C                    -0.151430
     45 C                    -0.400274
     46 H                     0.243107
     47 C                     0.102313
     48 C                     0.082313
     49 C                    -0.384613
     50 H                     0.236805
     51 C                    -0.158692
     52 C                     0.191668
     53 C                    -0.391754
     54 H                     0.232602
     55 C                    -0.064258
     56 C                     0.239498
     57 C                     0.190167
     58 C                    -0.382759
     59 H                     0.231747
     60 C                    -0.215605
     61 H                     0.239767
     62 C                    -0.343013
     63 H                     0.235348
     64 C                    -0.339193
     65 H                     0.235027
     66 C                    -0.218083
     67 H                     0.239957
     68 C                    -0.158212
     69 C                    -0.394840
     70 H                     0.236352
     71 C                     0.107395
     72 C                     0.079673
     73 C                    -0.392037
     74 H                     0.239807
     75 C                    -0.146713
     76 C                     0.189465
     77 C                    -0.391293
     78 H                     0.233484
     79 C                    -0.063699
     80 C                     0.240956
     81 C                     0.190455
     82 C                    -0.382335
     83 H                     0.232237
     84 C                    -0.215462
     85 H                     0.239897
     86 C                    -0.344014
     87 H                     0.235332
     88 C                    -0.339303
     89 H                     0.234999
     90 C                    -0.218435
     91 H                     0.240010
     92 B                     0.683673
     93 C                    -0.231674
     94 C                     0.072452
     95 C                    -0.361549
     96 H                     0.240154
     97 C                     0.308444
     98 C                    -0.366918
     99 H                     0.241035
    100 C                     0.057951
    101 N                    -0.674831
    102 C                     0.289652
    103 C                    -0.285811
    104 H                     0.252617
    105 C                    -0.226691
    106 H                     0.233032
    107 C                    -0.249957
    108 H                     0.230123
    109 C                    -0.226457
    110 H                     0.231350
    111 C                    -0.280380
    112 H                     0.247772
    113 C                     0.295427
    114 C                    -0.287212
    115 H                     0.252618
    116 C                    -0.225954
    117 H                     0.232872
    118 C                    -0.250808
    119 H                     0.229934
    120 C                    -0.225581
    121 H                     0.231031
    122 C                    -0.284510
    123 H                     0.247744
    124 C                    -0.765853
    125 H                     0.245316
    126 H                     0.246546
    127 H                     0.247247
    128 C                    -0.552672
    129 H                     0.239409
    130 H                     0.254097
    131 C                    -0.646719
    132 H                     0.234468
    133 H                     0.218741
    134 H                     0.223777
  ----------------------------------------
  Sum of atomic charges =    -0.000000

                    Cartesian Multipole Moments
 -----------------------------------------------------------------
    Charge (ESU x 10^10)
                -0.0000
    Dipole Moment (Debye)
         X       0.0440      Y       0.0737      Z      -0.0679
       Tot       0.1094
    Quadrupole Moments (Debye-Ang)
        XX    -390.5115     XY     -11.4008     YY    -422.8910
        XZ     -10.7277     YZ      23.3557     ZZ    -423.5889

 Total job time:  54872.68s(wall), 131195.54s(cpu)
        *  Thank you very much for using Q-Chem.  Have a nice day.  *
