 Q-Chem 5.0, Q-Chem, Inc., Pleasanton, CA (2017)
 Q-Chem 5.0.1 for Intel X86 EM64T Linux

User input:
--------------------------------------------------------------
$rem
threads 4
jobtype	opt
method PBEh-3c
basis def2-mSVP
mem_static	1024
mem_total	4000
sym_ignore	true
scf_convergence	9
solvent_method	pcm
$end

$molecule
read gsopt.mol
$end

$solvent
dielectric	8.93
$end

$pcm
theory iefpcm
$end
--------------------------------------------------------------

   16   -3006.3592797951      9.39E-10 Convergence criterion met
 Total energy in the final basis set = -3006.35927980
   15   -3006.3594159188      4.73E-10 Convergence criterion met
 Total energy in the final basis set = -3006.35941592
   15   -3006.3592889060      4.12E-10 Convergence criterion met
 Total energy in the final basis set = -3006.35928891
   15   -3006.3593088221      3.71E-10 Convergence criterion met
 Total energy in the final basis set = -3006.35930882
   15   -3006.3590978612      4.69E-10 Convergence criterion met
 Total energy in the final basis set = -3006.35909786
   15   -3006.3592031592      3.98E-10 Convergence criterion met
 Total energy in the final basis set = -3006.35920316
   15   -3006.3589470639      4.10E-10 Convergence criterion met
 Total energy in the final basis set = -3006.35894706
   15   -3006.3592260872      4.32E-10 Convergence criterion met
 Total energy in the final basis set = -3006.35922609
   15   -3006.3592227128      3.75E-10 Convergence criterion met
 Total energy in the final basis set = -3006.35922271
   15   -3006.3593175327      3.71E-10 Convergence criterion met
 Total energy in the final basis set = -3006.35931753
   14   -3006.3592832959      9.38E-10 Convergence criterion met
 Total energy in the final basis set = -3006.35928330
   14   -3006.3593320831      8.72E-10 Convergence criterion met
 Total energy in the final basis set = -3006.35933208

             Standard Nuclear Orientation (Angstroms)
    I     Atom           X                Y                Z
 ----------------------------------------------------------------
    1      N      -0.0789410984     0.0404502515     0.1975314289
    2      C      -0.1886641048    -0.0178441792     1.5981039069
    3      C       0.9414723713     0.1429890649     2.3993909943
    4      H       1.9084034260     0.3048541348     1.9400701597
    5      C       0.8319687319     0.0921699882     3.7802333517
    6      H       1.7193510481     0.2185036857     4.3871417216
    7      C      -0.3972420255    -0.1376336922     4.3834775427
    8      H      -0.4782513700    -0.1859695688     5.4613043590
    9      C      -1.5222287565    -0.3038456079     3.5865548067
   10      H      -2.4894669760    -0.4752689916     4.0416950586
   11      C      -1.4255393885    -0.2347907710     2.2060570994
   12      H      -2.3130728454    -0.3524998399     1.5971239007
   13      C       0.7244058889     1.0316444772    -0.3956928437
   14      C       1.5763946275     0.7103517013    -1.4522165025
   15      H       1.6287773643    -0.3101090051    -1.8106940629
   16      C       2.3511460569     1.6929622049    -2.0474128898
   17      H       3.0048222039     1.4284505645    -2.8688105762
   18      C       2.3052776437     3.0026999293    -1.5878064849
   19      H       2.9161161500     3.7663018099    -2.0509379230
   20      C       1.4662132432     3.3213647378    -0.5286078460
   21      H       1.4139784967     4.3394804092    -0.1646639313
   22      C       0.6732121607     2.3480442409     0.0592329956
   23      H       0.0086315932     2.6110285418     0.8725583305
   24      C      -0.8058248368    -0.8500860855    -0.6123255850
   25      C      -0.9590522824    -2.1816549125    -0.2436272183
   26      H      -0.4987478214    -2.5449060766     0.6683532130
   27      C      -1.6994838219    -3.0605390835    -1.0268939228
   28      C      -1.3834682897    -0.4136746444    -1.8034073182
   29      H      -1.2711525080     0.6194633339    -2.1099695134
   30      C      -2.1036061050    -1.2854321172    -2.6076034017
   31      C      -2.2835563625    -2.6224486985    -2.2205823495
   32      C      -2.7068207900    -0.7842507081    -3.8915986089
   33      H      -2.4075976155     0.2418081175    -4.1028531677
   34      H      -3.7980052160    -0.8072840970    -3.8577237350
   35      H      -2.4023851983    -1.3964202929    -4.7436828853
   36      C      -1.8955469868    -4.4738467281    -0.5410886946
   37      H      -1.0070609210    -4.8010290033     0.0045062136
   38      H      -1.9950229795    -5.1576527480    -1.3886218038
   39      C      -3.1184015823    -4.6102975016     0.3641116307
   40      H      -4.0325827646    -4.3292583147    -0.1598040992
   41      H      -3.2355143157    -5.6384725421     0.7083035644
   42      H      -3.0294675297    -3.9704696664     1.2431504985
   43      B      -3.1656749221    -3.5717044775    -3.1111188809
   44      C      -4.7205189425    -3.4915649237    -3.0014920705
   45      C      -5.3231669052    -2.6255441142    -2.0807644741
   46      H      -4.7064113159    -2.0114082869    -1.4340179063
   47      C      -6.7035913801    -2.5532853837    -1.9947794258
   48      C      -7.5032139738    -3.3579421333    -2.8372198741
   49      C      -6.9212993265    -4.2186000804    -3.7466897688
   50      H      -7.5432219464    -4.8324551930    -4.3885670331
   51      C      -5.5311899994    -4.2963547425    -3.8391882245
   52      C      -7.6032749745    -1.7558261333    -1.1532955631
   53      C      -7.4492754478    -0.8143689712    -0.1687871440
   54      H      -6.4720144095    -0.4901663214     0.1667562704
   55      C      -8.9126076113    -2.1166044782    -1.5284255576
   56      C     -10.0714005469    -1.5847075100    -0.9707714718
   57      C      -8.9085458544    -3.0859256268    -2.5472849629
   58      C     -10.1068037907    -3.5454164685    -3.0319606924
   59      H     -10.1607782080    -4.2903379285    -3.8167531935
   60      C      -8.6099792225    -0.2538986208     0.4202504966
   61      H      -8.4842994398     0.4891673332     1.1968639109
   62      C      -9.8835528906    -0.6155062378     0.0439870394
   63      H     -10.7406654645    -0.1582471693     0.5232382514
   64      C     -11.2984290663    -2.0732827282    -1.4846739381
   65      H     -12.2366086449    -1.6993878224    -1.0928176829
   66      C     -11.3014342386    -3.0218235270    -2.4822968117
   67      H     -12.2481395761    -3.3828795100    -2.8631348870
   68      C      -2.5158576809    -4.5734573021    -4.1157355957
   69      C      -1.1228907601    -4.6804201797    -4.2147834047
   70      H      -0.4895785789    -4.0527991668    -3.5975051886
   71      C      -0.5551404740    -5.5914309601    -5.0922824807
   72      C      -1.3879917082    -6.4047609251    -5.8925926284
   73      C      -2.7632885067    -6.2985134650    -5.8152454100
   74      H      -3.3945242510    -6.9233929085    -6.4375305254
   75      C      -3.3417566499    -5.3875221135    -4.9318358614
   76      C       0.8363975538    -5.9392403188    -5.4024679829
   77      C       2.0699200570    -5.5242028840    -4.9736287096
   78      H       2.1866678582    -4.7513333886    -4.2242561477
   79      C       0.7790712088    -6.9522282583    -6.3807199039
   80      C       1.8870175193    -7.5696952937    -6.9503484219
   81      C      -0.5496314589    -7.2702122815    -6.7133080721
   82      C      -0.7895793212    -8.2406095422    -7.6516423540
   83      H      -1.7945026165    -8.5227089613    -7.9420344051
   84      C       3.2198277445    -6.1332494181    -5.5342745369
   85      H       4.1926218134    -5.8038844873    -5.1933887238
   86      C       3.1485930959    -7.1220323842    -6.4893367453
   87      H       4.0577031250    -7.5565698574    -6.8865450398
   88      C       1.6188546156    -8.5695759878    -7.9184868121
   89      H       2.4380326314    -9.0890703868    -8.4004998658
   90      C       0.3198783105    -8.8844666220    -8.2488652246
   91      H       0.1361427262    -9.6512699279    -8.9903135155
   92      B      -4.8889410687    -5.2737383821    -4.8602218711
   93      C      -5.8026881360    -6.1445001569    -5.7991918045
   94      C      -6.2223848061    -5.6632346197    -7.0419198482
   95      C      -7.0356845003    -6.4418394670    -7.8584310123
   96      H      -7.3424691327    -6.0573101663    -8.8252208949
   97      C      -7.4604632347    -7.6991517957    -7.4514068627
   98      C      -7.0492822116    -8.1790001179    -6.2098789403
   99      H      -7.3826835285    -9.1542901420    -5.8740299480
  100      C      -6.2242662801    -7.4206948842    -5.3925635371
  101      N      -8.3022400031    -8.4707368395    -8.2748636529
  102      C      -9.3611987706    -7.8547679022    -8.9629299050
  103      C      -9.6250915246    -8.1790315406   -10.2936115080
  104      H      -9.0055765292    -8.9049839561   -10.8051039063
  105      C     -10.6774588962    -7.5758138328   -10.9646385442
  106      H     -10.8685309068    -7.8394904438   -11.9971362529
  107      C     -11.4689706743    -6.6278372875   -10.3304129328
  108      H     -12.2842041466    -6.1524781395   -10.8597721381
  109      C     -11.2016852664    -6.2972072913    -9.0084755435
  110      H     -11.8144859639    -5.5650738145    -8.4981986379
  111      C     -10.1646394435    -6.9107512161    -8.3238634648
  112      H      -9.9753415592    -6.6561667162    -7.2888234165
  113      C      -8.0780565651    -9.8485107192    -8.4276250513
  114      C      -9.1516448553   -10.7400698195    -8.4451257514
  115      H     -10.1624705952   -10.3694959569    -8.3298482943
  116      C      -8.9314589100   -12.0981011704    -8.6111663203
  117      H      -9.7768771799   -12.7743134631    -8.6236423101
  118      C      -7.6411029833   -12.5944203658    -8.7409871257
  119      H      -7.4721267418   -13.6561762695    -8.8628368665
  120      C      -6.5707250727   -11.7105790521    -8.7120754119
  121      H      -5.5589217604   -12.0807447769    -8.8179634071
  122      C      -6.7832498010   -10.3483345051    -8.5671927977
  123      H      -5.9404146968    -9.6688405642    -8.5640192765
  124      C      -5.8019564174    -7.9623931346    -4.0554296822
  125      H      -6.2105531700    -8.9565531515    -3.8774987058
  126      H      -4.7147101794    -8.0350735833    -3.9795797063
  127      H      -6.1369548453    -7.3185693917    -3.2390410604
  128      C      -5.7640617212    -4.3234746032    -7.5597816690
  129      H      -6.6157447592    -3.7834133152    -7.9818343068
  130      H      -5.3953951456    -3.7002489576    -6.7399203535
  131      C      -4.6750617569    -4.4560432093    -8.6218296058
  132      H      -3.7980591818    -4.9680706977    -8.2245175659
  133      H      -5.0317571244    -5.0259456033    -9.4806835826
  134      H      -4.3571827566    -3.4765716938    -8.9804669532
 ----------------------------------------------------------------

   14   -3006.3593326532      8.60E-10 Convergence criterion met
 Total energy in the final basis set = -3006.35933265
 Final energy is   -3006.35933265318
 **  OPTIMIZATION CONVERGED  **

                    Orbital Energies (a.u.)
 --------------------------------------------------------------

 Alpha MOs
 -- Occupied --
-14.672 -14.672 -10.493 -10.493 -10.493 -10.493 -10.488 -10.488
-10.468 -10.468 -10.466 -10.466 -10.466 -10.465 -10.465 -10.465
-10.465 -10.465 -10.464 -10.464 -10.462 -10.462 -10.462 -10.462
-10.462 -10.462 -10.459 -10.459 -10.459 -10.458 -10.458 -10.458
-10.456 -10.456 -10.456 -10.455 -10.453 -10.453 -10.450 -10.450
-10.449 -10.449 -10.449 -10.449 -10.449 -10.449 -10.449 -10.449
-10.447 -10.447 -10.447 -10.447 -10.447 -10.447 -10.447 -10.446
-10.445 -10.444 -10.444 -10.444 -10.439 -10.438 -10.438 -10.437
-10.437 -10.437 -10.437 -10.437 -10.436 -10.435 -10.427 -10.427
-10.424 -10.423 -10.422 -10.421  -6.954  -6.952  -1.082  -1.082
 -1.019  -1.018  -0.966  -0.963  -0.963  -0.962  -0.962  -0.961
 -0.942  -0.942  -0.934  -0.934  -0.911  -0.903  -0.885  -0.884
 -0.867  -0.863  -0.857  -0.855  -0.852  -0.852  -0.848  -0.847
 -0.840  -0.840  -0.839  -0.839  -0.825  -0.817  -0.816  -0.815
 -0.814  -0.807  -0.795  -0.795  -0.767  -0.767  -0.736  -0.731
 -0.727  -0.722  -0.715  -0.714  -0.709  -0.708  -0.701  -0.700
 -0.690  -0.684  -0.683  -0.683  -0.680  -0.677  -0.670  -0.667
 -0.651  -0.649  -0.642  -0.641  -0.637  -0.637  -0.607  -0.607
 -0.596  -0.596  -0.591  -0.589  -0.589  -0.588  -0.584  -0.576
 -0.575  -0.563  -0.563  -0.555  -0.554  -0.546  -0.544  -0.543
 -0.542  -0.539  -0.528  -0.525  -0.524  -0.524  -0.518  -0.513
 -0.511  -0.510  -0.504  -0.502  -0.501  -0.500  -0.498  -0.497
 -0.497  -0.495  -0.494  -0.490  -0.488  -0.488  -0.485  -0.484
 -0.484  -0.482  -0.482  -0.482  -0.479  -0.478  -0.477  -0.474
 -0.470  -0.467  -0.467  -0.463  -0.458  -0.453  -0.450  -0.447
 -0.443  -0.442  -0.440  -0.439  -0.435  -0.432  -0.432  -0.429
 -0.429  -0.428  -0.426  -0.423  -0.422  -0.421  -0.419  -0.413
 -0.413  -0.412  -0.407  -0.406  -0.401  -0.401  -0.398  -0.398
 -0.398  -0.397  -0.397  -0.395  -0.394  -0.393  -0.391  -0.388
 -0.382  -0.377  -0.376  -0.371  -0.361  -0.359  -0.355  -0.354
 -0.346  -0.344  -0.322  -0.317  -0.307  -0.307  -0.302  -0.302
 -0.299  -0.298  -0.297  -0.297  -0.289  -0.287  -0.284  -0.278
 -0.278  -0.265  -0.261  -0.258  -0.224  -0.223

          Ground-State Mulliken Net Atomic Charges

     Atom                 Charge (a.u.)
  ----------------------------------------
      1 N                    -0.673866
      2 C                     0.292208
      3 C                    -0.296344
      4 H                     0.260479
      5 C                    -0.241592
      6 H                     0.249113
      7 C                    -0.265681
      8 H                     0.246031
      9 C                    -0.241565
     10 H                     0.248808
     11 C                    -0.294428
     12 H                     0.259534
     13 C                     0.282239
     14 C                    -0.288872
     15 H                     0.259899
     16 C                    -0.241975
     17 H                     0.249422
     18 C                    -0.263513
     19 H                     0.246771
     20 C                    -0.242537
     21 H                     0.249531
     22 C                    -0.291677
     23 H                     0.259976
     24 C                     0.316642
     25 C                    -0.372478
     26 H                     0.248433
     27 C                     0.069772
     28 C                    -0.383314
     29 H                     0.250834
     30 C                     0.043315
     31 C                    -0.221087
     32 C                    -0.772791
     33 H                     0.254282
     34 H                     0.250149
     35 H                     0.249288
     36 C                    -0.551832
     37 H                     0.243488
     38 H                     0.251180
     39 C                    -0.657655
     40 H                     0.236309
     41 H                     0.228827
     42 H                     0.222820
     43 B                     0.681985
     44 C                    -0.153104
     45 C                    -0.400628
     46 H                     0.251543
     47 C                     0.091047
     48 C                     0.071626
     49 C                    -0.388537
     50 H                     0.246310
     51 C                    -0.159758
     52 C                     0.180541
     53 C                    -0.397279
     54 H                     0.251544
     55 C                    -0.066536
     56 C                     0.220368
     57 C                     0.178895
     58 C                    -0.388765
     59 H                     0.251116
     60 C                    -0.231816
     61 H                     0.257364
     62 C                    -0.349539
     63 H                     0.255118
     64 C                    -0.345925
     65 H                     0.254801
     66 C                    -0.234166
     67 H                     0.257809
     68 C                    -0.158957
     69 C                    -0.398210
     70 H                     0.245577
     71 C                     0.096042
     72 C                     0.068745
     73 C                    -0.392495
     74 H                     0.248486
     75 C                    -0.149357
     76 C                     0.178228
     77 C                    -0.396637
     78 H                     0.252140
     79 C                    -0.066013
     80 C                     0.221895
     81 C                     0.179621
     82 C                    -0.388183
     83 H                     0.251654
     84 C                    -0.231660
     85 H                     0.257480
     86 C                    -0.350470
     87 H                     0.255053
     88 C                    -0.346101
     89 H                     0.254715
     90 C                    -0.234532
     91 H                     0.257837
     92 B                     0.680506
     93 C                    -0.230393
     94 C                     0.065014
     95 C                    -0.368318
     96 H                     0.247845
     97 C                     0.310017
     98 C                    -0.375858
     99 H                     0.249287
    100 C                     0.052381
    101 N                    -0.673894
    102 C                     0.289014
    103 C                    -0.295665
    104 H                     0.260663
    105 C                    -0.241673
    106 H                     0.249095
    107 C                    -0.265247
    108 H                     0.246092
    109 C                    -0.241756
    110 H                     0.248424
    111 C                    -0.291606
    112 H                     0.258513
    113 C                     0.294975
    114 C                    -0.297322
    115 H                     0.260694
    116 C                    -0.240908
    117 H                     0.248959
    118 C                    -0.266243
    119 H                     0.245922
    120 C                    -0.241007
    121 H                     0.248250
    122 C                    -0.295981
    123 H                     0.258336
    124 C                    -0.772304
    125 H                     0.253861
    126 H                     0.248105
    127 H                     0.248706
    128 C                    -0.553154
    129 H                     0.245210
    130 H                     0.254485
    131 C                    -0.654790
    132 H                     0.232128
    133 H                     0.223727
    134 H                     0.228894
  ----------------------------------------
  Sum of atomic charges =    -0.000000

                    Cartesian Multipole Moments
 -----------------------------------------------------------------
    Charge (ESU x 10^10)
                -0.0000
    Dipole Moment (Debye)
         X       0.0144      Y       0.0640      Z      -0.0466
       Tot       0.0804
    Quadrupole Moments (Debye-Ang)
        XX    -378.8074     XY     -12.8945     YY    -416.3251
        XZ     -11.9064     YZ      27.2772     ZZ    -416.9549

 Total job time:  56935.72s(wall), 135290.41s(cpu)
        *  Thank you very much for using Q-Chem.  Have a nice day.  *
