 Q-Chem 5.0, Q-Chem, Inc., Pleasanton, CA (2017)
 Q-Chem 5.0.1 for Intel X86 EM64T Linux

User input:
--------------------------------------------------------------
$rem
threads 4
jobtype	opt
method PBEh-3c
basis def2-mSVP
mem_static	1024
mem_total	4000
sym_ignore	true
scf_convergence	9
solvent_method	pcm
$end

$molecule
read gsopt.mol
$end

$solvent
dielectric	1.0001
$end

$pcm
theory iefpcm
$end
--------------------------------------------------------------

   17   -3006.3262912879      7.66E-10 Convergence criterion met
 Total energy in the final basis set = -3006.32629129
   15   -3006.3262801852      5.14E-10 Convergence criterion met
 Total energy in the final basis set = -3006.32628019
   14   -3006.3260429271      9.42E-10 Convergence criterion met
 Total energy in the final basis set = -3006.32604293
   14   -3006.3260639533      8.88E-10 Convergence criterion met
 Total energy in the final basis set = -3006.32606395
   15   -3006.3259213508      5.30E-10 Convergence criterion met
 Total energy in the final basis set = -3006.32592135
   13   -3006.3261935034      8.64E-10 Convergence criterion met
 Total energy in the final basis set = -3006.32619350
   13   -3006.3262444750      8.17E-10 Convergence criterion met
 Total energy in the final basis set = -3006.32624448
   13   -3006.3262129379      8.76E-10 Convergence criterion met
   11   -3006.3262744280      9.95E-10 Convergence criterion met
 Total energy in the final basis set = -3006.32627443
   12   -3006.3262708524      4.98E-10 Convergence criterion met
 Total energy in the final basis set = -3006.32627085
   11   -3006.3262643664      8.44E-10 Convergence criterion met
 Total energy in the final basis set = -3006.32626437
   11   -3006.3262751675      4.93E-10 Convergence criterion met
 Total energy in the final basis set = -3006.32627517
   10   -3006.3262779232      6.90E-10 Convergence criterion met
 Total energy in the final basis set = -3006.32627792
   10   -3006.3262760049      4.95E-10 Convergence criterion met
 Total energy in the final basis set = -3006.32627600

             Standard Nuclear Orientation (Angstroms)
    I     Atom           X                Y                Z
 ----------------------------------------------------------------
    1      N      -0.0893693492     0.0338535174     0.2091812523
    2      C      -0.2062876571    -0.0319849178     1.6079388315
    3      C       0.9149313083     0.1430363704     2.4177041757
    4      H       1.8804885720     0.3234466278     1.9631829629
    5      C       0.7963017386     0.0849000898     3.7961816168
    6      H       1.6770418487     0.2229732729     4.4097660581
    7      C      -0.4318985077    -0.1669083434     4.3896981345
    8      H      -0.5194649985    -0.2212313327     5.4664140991
    9      C      -1.5473025516    -0.3481675460     3.5849016017
   10      H      -2.5141906088    -0.5378945694     4.0330350072
   11      C      -1.4426642092    -0.2715395768     2.2067086906
   12      H      -2.3211594385    -0.4028436641     1.5881544077
   13      C       0.7156412088     1.0272510058    -0.3756737553
   14      C       1.5603635556     0.7139361282    -1.4394408817
   15      H       1.6007331775    -0.3026862211    -1.8090822992
   16      C       2.3371136002     1.6981708637    -2.0264116527
   17      H       2.9847445424     1.4399042955    -2.8542787062
   18      C       2.3014183821     3.0015741929    -1.5522517242
   19      H       2.9143766977     3.7665854369    -2.0095378199
   20      C       1.4698294787     3.3125094398    -0.4865312229
   21      H       1.4255431729     4.3265282026    -0.1109877301
   22      C       0.6743069950     2.3384300888     0.0935994834
   23      H       0.0154907450     2.5925231399     0.9140007335
   24      C      -0.8088229508    -0.8558229191    -0.6083086301
   25      C      -0.9578366254    -2.1891470087    -0.2468849342
   26      H      -0.4979826958    -2.5519370856     0.6653400611
   27      C      -1.6932483340    -3.0663144795    -1.0354449063
   28      C      -1.3833332169    -0.4160776646    -1.7989205274
   29      H      -1.2701989875     0.6187549609    -2.0986105086
   30      C      -2.0973030432    -1.2859675391    -2.6089070624
   31      C      -2.2759391374    -2.6242581886    -2.2278143255
   32      C      -2.6964142957    -0.7838340535    -3.8943023718
   33      H      -2.3936965731     0.2410341250    -4.1062649558
   34      H      -3.7876986096    -0.8040680804    -3.8643387187
   35      H      -2.3902702451    -1.3970408700    -4.7448197409
   36      C      -1.8876883389    -4.4826785275    -0.5577719686
   37      H      -1.0009323853    -4.8098167194    -0.0089613143
   38      H      -1.9779901943    -5.1627945949    -1.4092620198
   39      C      -3.1157298190    -4.6274648300     0.3387597876
   40      H      -4.0280028625    -4.3513759695    -0.1904690172
   41      H      -3.2306058940    -5.6561287379     0.6820472659
   42      H      -3.0361227046    -3.9877383688     1.2184820653
   43      B      -3.1599503077    -3.5695698589    -3.1197240002
   44      C      -4.7141538040    -3.4816672426    -3.0101748348
   45      C      -5.3136475810    -2.6088209679    -2.0944320730
   46      H      -4.6902906738    -1.9953329623    -1.4532345023
   47      C      -6.6929316227    -2.5318284276    -2.0084791651
   48      C      -7.4952472146    -3.3400361156    -2.8433355917
   49      C      -6.9167847403    -4.2067198989    -3.7477055392
   50      H      -7.5359867688    -4.8247888533    -4.3883023801
   51      C      -5.5275480235    -4.2878032613    -3.8419829264
   52      C      -7.5897751819    -1.7254879452    -1.1726397285
   53      C      -7.4327971714    -0.7764592650    -0.1978841146
   54      H      -6.4541493899    -0.4513817781     0.1321769831
   55      C      -8.9004727435    -2.0853662266    -1.5417683392
   56      C     -10.0562011196    -1.5464698812    -0.9868324616
   57      C      -8.8993243556    -3.0626416079    -2.5522071451
   58      C     -10.0989720130    -3.5231593343    -3.0287006366
   59      H     -10.1558929301    -4.2750248543    -3.8063625546
   60      C      -8.5897374267    -0.2078050026     0.3882351347
   61      H      -8.4612004215     0.5420631814     1.1576352087
   62      C      -9.8634491387    -0.5695625833     0.0180584486
   63      H     -10.7178698441    -0.1055445938     0.4953623505
   64      C     -11.2840925724    -2.0372602881    -1.4938280689
   65      H     -12.2212539942    -1.6590430113    -1.1040142698
   66      C     -11.2910228108    -2.9937252669    -2.4817148297
   67      H     -12.2392764220    -3.3566324026    -2.8566391962
   68      C      -2.5150176828    -4.5741533367    -4.1234012738
   69      C      -1.1229212461    -4.6811174858    -4.2284531539
   70      H      -0.4919199695    -4.0492753360    -3.6130543316
   71      C      -0.5593699566    -5.5918316367    -5.1073991001
   72      C      -1.3949780312    -6.4054267585    -5.9028931202
   73      C      -2.7689181403    -6.2999675064    -5.8187497520
   74      H      -3.4076651667    -6.9226156862    -6.4359636724
   75      C      -3.3436632559    -5.3886541335    -4.9341460174
   76      C       0.8306504161    -5.9378739065    -5.4258527896
   77      C       2.0650362291    -5.5220062898    -5.0047915504
   78      H       2.1842008637    -4.7500915884    -4.2550675134
   79      C       0.7704138181    -6.9495896516    -6.4044762049
   80      C       1.8753664827    -7.5632568910    -6.9816296450
   81      C      -0.5594383053    -7.2685881379    -6.7289614915
   82      C      -0.8017786649    -8.2364920794    -7.6673430276
   83      H      -1.8078096453    -8.5191372979    -7.9527374723
   84      C       3.2124808068    -6.1270499384    -5.5722942913
   85      H       4.1866806384    -5.7965858697    -5.2369051523
   86      C       3.1374883396    -7.1133952527    -6.5274397361
   87      H       4.0454928062    -7.5447566899    -6.9302836893
   88      C       1.6027876763    -8.5608411366    -7.9495109189
   89      H       2.4191042479    -9.0782182817    -8.4383407833
   90      C       0.3038985561    -8.8770085259    -8.2726056610
   91      H       0.1174501902    -9.6421859119    -9.0149102447
   92      B      -4.8897825716    -5.2710025294    -4.8586147433
   93      C      -5.8062247374    -6.1435781881    -5.7926679465
   94      C      -6.2324152761    -5.6642274741    -7.0336796928
   95      C      -7.0432184407    -6.4466854185    -7.8473780723
   96      H      -7.3558619261    -6.0662754523    -8.8137677339
   97      C      -7.4614560862    -7.7052365161    -7.4392879232
   98      C      -7.0475648977    -8.1811407412    -6.1979206609
   99      H      -7.3773704963    -9.1578774725    -5.8635758260
  100      C      -6.2233249114    -7.4199536180    -5.3839827287
  101      N      -8.2984159909    -8.4825355640    -8.2623845080
  102      C      -9.3583287372    -7.8733555259    -8.9532069324
  103      C      -9.6259757085    -8.2095959860   -10.2795303577
  104      H      -9.0078905209    -8.9423712694   -10.7822688723
  105      C     -10.6783990518    -7.6119883741   -10.9528682674
  106      H     -10.8723994196    -7.8851963024   -11.9820934517
  107      C     -11.4668192118    -6.6579728668   -10.3268018574
  108      H     -12.2822797215    -6.1867508776   -10.8588588448
  109      C     -11.1961521455    -6.3153568067    -9.0100167480
  110      H     -11.8067357464    -5.5771991722    -8.5062375194
  111      C     -10.1592643278    -6.9227689900    -8.3222474105
  112      H      -9.9631066544    -6.6596863127    -7.2910303615
  113      C      -8.0677322989    -9.8590843458    -8.4101429701
  114      C      -9.1364103154   -10.7553768577    -8.4373540759
  115      H     -10.1488719195   -10.3863159198    -8.3354762892
  116      C      -8.9081614485   -12.1116378666    -8.5966438939
  117      H      -9.7500944193   -12.7916309000    -8.6166101857
  118      C      -7.6157023898   -12.6025841154    -8.7103610583
  119      H      -7.4409335455   -13.6637314634    -8.8265052643
  120      C      -6.5507780466   -11.7146510616    -8.6725029810
  121      H      -5.5366410092   -12.0812250457    -8.7655436297
  122      C      -6.7702870476   -10.3541155422    -8.5345027633
  123      H      -5.9330775743    -9.6684669676    -8.5226033739
  124      C      -5.7990991613    -7.9553651079    -4.0450712616
  125      H      -6.1841072273    -8.9599203350    -3.8729844394
  126      H      -4.7113598936    -8.0019121581    -3.9586319018
  127      H      -6.1576298632    -7.3223746093    -3.2302819447
  128      C      -5.7801839083    -4.3230846631    -7.5526113389
  129      H      -6.6315895188    -3.7950358061    -7.9904830959
  130      H      -5.4333311722    -3.6908178788    -6.7303384802
  131      C      -4.6726345688    -4.4500625199    -8.5957433550
  132      H      -3.7918076561    -4.9371899551    -8.1771755802
  133      H      -5.0041753821    -5.0411042483    -9.4501569836
  134      H      -4.3675367118    -3.4709378226    -8.9660254546
 ----------------------------------------------------------------

   10   -3006.3262768148      4.93E-10 Convergence criterion met
 Total energy in the final basis set = -3006.32627681
 Final energy is   -3006.32627681480
 **  OPTIMIZATION CONVERGED  **

                    Orbital Energies (a.u.)
 --------------------------------------------------------------

 Alpha MOs
 -- Occupied --
-14.668 -14.667 -10.489 -10.489 -10.488 -10.488 -10.483 -10.482
-10.465 -10.465 -10.465 -10.464 -10.464 -10.464 -10.463 -10.463
-10.462 -10.462 -10.462 -10.462 -10.462 -10.461 -10.461 -10.461
-10.460 -10.460 -10.460 -10.460 -10.459 -10.459 -10.454 -10.453
-10.452 -10.451 -10.451 -10.451 -10.448 -10.448 -10.447 -10.447
-10.447 -10.447 -10.447 -10.447 -10.447 -10.446 -10.446 -10.446
-10.444 -10.444 -10.443 -10.443 -10.443 -10.443 -10.443 -10.443
-10.442 -10.442 -10.441 -10.441 -10.434 -10.434 -10.434 -10.433
-10.433 -10.433 -10.433 -10.432 -10.432 -10.431 -10.426 -10.425
-10.420 -10.419 -10.418 -10.418  -6.949  -6.947  -1.078  -1.077
 -1.016  -1.015  -0.963  -0.959  -0.959  -0.959  -0.959  -0.958
 -0.938  -0.938  -0.934  -0.933  -0.908  -0.900  -0.882  -0.881
 -0.863  -0.859  -0.854  -0.852  -0.849  -0.849  -0.847  -0.847
 -0.838  -0.837  -0.836  -0.836  -0.822  -0.815  -0.813  -0.812
 -0.812  -0.804  -0.792  -0.791  -0.764  -0.763  -0.735  -0.730
 -0.727  -0.720  -0.712  -0.711  -0.706  -0.705  -0.698  -0.697
 -0.689  -0.681  -0.680  -0.680  -0.679  -0.674  -0.667  -0.665
 -0.649  -0.647  -0.639  -0.638  -0.634  -0.634  -0.604  -0.604
 -0.595  -0.594  -0.593  -0.589  -0.586  -0.585  -0.584  -0.575
 -0.574  -0.561  -0.561  -0.552  -0.551  -0.543  -0.543  -0.541
 -0.540  -0.537  -0.528  -0.525  -0.522  -0.521  -0.516  -0.511
 -0.509  -0.508  -0.503  -0.500  -0.499  -0.498  -0.496  -0.495
 -0.495  -0.493  -0.491  -0.489  -0.484  -0.484  -0.483  -0.483
 -0.483  -0.481  -0.481  -0.481  -0.479  -0.476  -0.475  -0.471
 -0.468  -0.468  -0.466  -0.460  -0.455  -0.452  -0.448  -0.445
 -0.441  -0.441  -0.439  -0.436  -0.430  -0.429  -0.428  -0.426
 -0.425  -0.424  -0.423  -0.421  -0.419  -0.419  -0.416  -0.412
 -0.411  -0.410  -0.404  -0.403  -0.399  -0.398  -0.398  -0.397
 -0.396  -0.395  -0.395  -0.394  -0.393  -0.391  -0.389  -0.386
 -0.378  -0.374  -0.373  -0.367  -0.356  -0.355  -0.351  -0.350
 -0.342  -0.339  -0.318  -0.312  -0.302  -0.302  -0.298  -0.297
 -0.295  -0.294  -0.294  -0.293  -0.284  -0.282  -0.279  -0.273
 -0.272  -0.262  -0.256  -0.255  -0.219  -0.218

          Ground-State Mulliken Net Atomic Charges

     Atom                 Charge (a.u.)
  ----------------------------------------
      1 N                    -0.675401
      2 C                     0.293945
      3 C                    -0.277832
      4 H                     0.244684
      5 C                    -0.214058
      6 H                     0.220163
      7 C                    -0.237773
      8 H                     0.217542
      9 C                    -0.213908
     10 H                     0.218928
     11 C                    -0.276363
     12 H                     0.240873
     13 C                     0.282891
     14 C                    -0.270182
     15 H                     0.242052
     16 C                    -0.214562
     17 H                     0.219860
     18 C                    -0.236175
     19 H                     0.218192
     20 C                    -0.215186
     21 H                     0.220559
     22 C                    -0.273589
     23 H                     0.243935
     24 C                     0.314364
     25 C                    -0.358977
     26 H                     0.234594
     27 C                     0.080684
     28 C                    -0.366521
     29 H                     0.236329
     30 C                     0.055231
     31 C                    -0.222138
     32 C                    -0.760888
     33 H                     0.239690
     34 H                     0.247891
     35 H                     0.243796
     36 C                    -0.550077
     37 H                     0.231050
     38 H                     0.250996
     39 C                    -0.645235
     40 H                     0.240593
     41 H                     0.219298
     42 H                     0.217149
     43 B                     0.686700
     44 C                    -0.150512
     45 C                    -0.399390
     46 H                     0.237260
     47 C                     0.109309
     48 C                     0.089324
     49 C                    -0.381209
     50 H                     0.230396
     51 C                    -0.158014
     52 C                     0.198876
     53 C                    -0.386349
     54 H                     0.218157
     55 C                    -0.063715
     56 C                     0.252055
     57 C                     0.197432
     58 C                    -0.377183
     59 H                     0.217105
     60 C                    -0.202808
     61 H                     0.226328
     62 C                    -0.336543
     63 H                     0.220625
     64 C                    -0.332612
     65 H                     0.220309
     66 C                    -0.205236
     67 H                     0.226359
     68 C                    -0.157783
     69 C                    -0.391634
     70 H                     0.229816
     71 C                     0.114619
     72 C                     0.086632
     73 C                    -0.391217
     74 H                     0.233945
     75 C                    -0.145038
     76 C                     0.196793
     77 C                    -0.386001
     78 H                     0.219030
     79 C                    -0.063170
     80 C                     0.253408
     81 C                     0.197404
     82 C                    -0.376759
     83 H                     0.217556
     84 C                    -0.202620
     85 H                     0.226409
     86 C                    -0.337525
     87 H                     0.220682
     88 C                    -0.332686
     89 H                     0.220368
     90 C                    -0.205681
     91 H                     0.226448
     92 B                     0.684483
     93 C                    -0.232449
     94 C                     0.077938
     95 C                    -0.354993
     96 H                     0.233400
     97 C                     0.307845
     98 C                    -0.358503
     99 H                     0.233640
    100 C                     0.062694
    101 N                    -0.675572
    102 C                     0.289695
    103 C                    -0.277745
    104 H                     0.245128
    105 C                    -0.214289
    106 H                     0.220293
    107 C                    -0.237181
    108 H                     0.217640
    109 C                    -0.213788
    110 H                     0.218043
    111 C                    -0.271495
    112 H                     0.239047
    113 C                     0.295709
    114 C                    -0.279234
    115 H                     0.245106
    116 C                    -0.213516
    117 H                     0.220118
    118 C                    -0.238063
    119 H                     0.217438
    120 C                    -0.212856
    121 H                     0.217670
    122 C                    -0.275585
    123 H                     0.239119
    124 C                    -0.760108
    125 H                     0.239115
    126 H                     0.244342
    127 H                     0.244688
    128 C                    -0.551537
    129 H                     0.234772
    130 H                     0.252121
    131 C                    -0.640171
    132 H                     0.235396
    133 H                     0.216024
    134 H                     0.219541
  ----------------------------------------
  Sum of atomic charges =    -0.000000

                    Cartesian Multipole Moments
 -----------------------------------------------------------------
    Charge (ESU x 10^10)
                -0.0000
    Dipole Moment (Debye)
         X       0.0619      Y       0.0888      Z      -0.0544
       Tot       0.1212
    Quadrupole Moments (Debye-Ang)
        XX    -397.7824     XY     -10.2414     YY    -426.9594
        XZ      -9.6468     YZ      21.1491     ZZ    -427.6411

 Total job time:  64712.31s(wall), 154230.57s(cpu)
        *  Thank you very much for using Q-Chem.  Have a nice day.  *
