 Q-Chem 5.0, Q-Chem, Inc., Pleasanton, CA (2017)
 Q-Chem 5.0.1 for Intel X86 EM64T Linux

User input:
--------------------------------------------------------------
$solvent
dielectric      8.93
dielectric_infi 2.03
$end

$rem
threads 8
jobtype	sp
method PBEh-3c
basis def2-mSVP
mem_static	1024
mem_total	14000
sym_ignore	true
cis_n_roots             6
cis_singlets            false
cis_triplets		true
rpa                     false
calc_soc 		true
cis_moments             true
cis_relaxed_density	true
solvent_method		pcm
$end

$pcm
StateSpecific   5
ChargeSeparation Excited
$end

$molecule
read tCTopt.mol
$end

--------------------------------------------------------------

   14   -1973.7209578403      7.10E-09 Convergence criterion met
 Total energy in the final basis set = -1973.72095784
 Total job time:  5554.02s(wall), 15926.31s(cpu)
        *  Thank you very much for using Q-Chem.  Have a nice day.  *
 Q-Chem 5.0, Q-Chem, Inc., Pleasanton, CA (2017)
 Q-Chem 5.0.1 for Intel X86 EM64T Linux

User input:
--------------------------------------------------------------
$rem
threads 8
jobtype sp
method PBEh-3c
basis def2-mSVP
mem_static      1024
mem_total       14000
sym_ignore      true
cis_n_roots             6
cis_singlets            true
cis_triplets            true
rpa                     false
calc_soc                true
cis_moments             true
cis_relaxed_density     true
solvent_method          pcm
$end

$molecule
read
$end

$pcm
statespecific           Marcus
$end

$solvent
dielectric      8.93
dielectric_infi 2.03
$end

--------------------------------------------------------------

             Standard Nuclear Orientation (Angstroms)
    I     Atom           X                Y                Z
 ----------------------------------------------------------------
    1      C       0.0000000000     0.0000000000     0.0000000000
    2      C       0.0000000000     0.0000000000     1.4102550000
    3      H       0.9360997242     0.0000000000     1.9608911666
    4      C      -1.1802910718    -0.0003792248     2.1038913171
    5      C      -1.2408217572    -0.0051173990    -0.6971298116
    6      C      -2.4419890213    -0.0079067929     0.0398187957
    7      H      -3.3844734185    -0.0135801935    -0.4975105738
    8      C      -2.4276574980    -0.0041394871     1.4160360195
    9      C      -1.4426100642     0.0028156111     3.5397365623
   10      C      -0.6659386828     0.0079603302     4.6713030530
   11      H       0.4163316130     0.0101364321     4.6229295686
   12      C      -2.8432994655     0.0005518061     3.6792592710
   13      C      -3.4976550634     0.0031048068     4.9084116493
   14      C      -3.4887304721    -0.0041907352     2.4241442904
   15      C      -4.8604032747    -0.0072939022     2.4090828511
   16      H      -5.4204367369    -0.0116258729     1.4826184953
   17      C      -1.3051593458     0.0106236796     5.9313075243
   18      H      -0.6926618280     0.0149098137     6.8241425188
   19      C      -2.6744114974     0.0081147427     6.0606727998
   20      H      -3.1227939053     0.0105280486     7.0467848381
   21      C      -4.9114968652     0.0004637293     4.8590411056
   22      H      -5.4874008061     0.0021665319     5.7763719344
   23      C      -5.5532742083    -0.0045394326     3.6428218247
   24      H      -6.6355035783    -0.0066656235     3.6237780528
   25      B       1.3075670719     0.0064650218    -0.7901179280
   26      C       1.2975227164     0.0130393969    -2.3181717735
   27      C       2.5009665065     0.0199588137    -3.0534777285
   28      H       3.4575398117     0.0246615641    -2.5390469959
   29      C       2.4773283890     0.0181110967    -4.4230024995
   30      C       1.2402267857     0.0092069228    -5.1300245968
   31      C       0.0571803764     0.0040275505    -4.4247167733
   32      H      -0.8933016871    -0.0033002902    -4.9483786355
   33      C       0.0545510416     0.0055550703    -3.0150940532
   34      C       3.5658103353     0.0183700282    -5.3927113965
   35      C       4.9352753740     0.0246805288    -5.3129215932
   36      H       5.4531668353     0.0339088609    -4.3613507863
   37      C       2.9577672306     0.0073389710    -6.6622043143
   38      C       3.6673796301     0.0001345922    -7.8586663409
   39      C       1.5500308157     0.0019013238    -6.5596432953
   40      C       0.8222445731    -0.0109689745    -7.7217778254
   41      H      -0.2603526574    -0.0161595564    -7.7166116694
   42      C       5.6800593497     0.0179990304    -6.5130093784
   43      H       6.7611097925     0.0224267708    -6.4533761544
   44      C       5.0794990318     0.0058766901    -7.7508339287
   45      H       5.6906543526     0.0004222399    -8.6450724393
   46      C       1.5157275310    -0.0184758976    -8.9549288447
   47      H       0.9363811951    -0.0292032458    -9.8691131414
   48      C       2.8884418788    -0.0131093241    -9.0398973282
   49      H       3.3712401759    -0.0196534627   -10.0092763372
   50      B      -1.2733688875    -0.0107922363    -2.2357901545
   51      C       2.6615840855    -0.0022041076    -0.0134125237
   52      C       3.2810458149    -1.2454651759     0.3599347152
   53      C       4.4446143386    -1.2302064299     1.0791453196
   54      H       4.9143974201    -2.1623314214     1.3700900219
   55      C       5.0579946306    -0.0166977759     1.4586842291
   56      C       4.4655651727     1.2014485909     1.0920430931
   57      H       4.9437163987     2.1266922874     1.3882277655
   58      C       3.2979933343     1.2319121645     0.3715043869
   59      C       6.3181070862    -0.0508530234     2.2449116021
   60      H       6.7224175215     0.9415017615     2.4280881209
   61      H       7.0768446420    -0.6456221009     1.7317884742
   62      H       6.1494625513    -0.5352244448     3.2102049675
   63      C       2.6584308006     2.5184572576    -0.0163055616
   64      H       3.2417886009     3.3773476388     0.3104214124
   65      H       2.5284487996     2.5717940961    -1.0982965582
   66      H       1.6580979808     2.5902961121     0.4148599720
   67      C       2.6272962442    -2.5249838804    -0.0371591517
   68      H       3.2082628517    -3.3906937449     0.2764500190
   69      H       2.4905097807    -2.5678186057    -1.1183553227
   70      H       1.6312062754    -2.5966304606     0.4026158772
   71      C      -2.6476472052    -0.0463462531    -2.9973713133
   72      C      -3.2440603782    -1.2695586426    -3.3234620204
   73      C      -4.4559574382    -1.2910819837    -4.0046263929
   74      H      -4.9071614730    -2.2463830396    -4.2528892911
   75      C      -5.1006913639    -0.1186816112    -4.3743903917
   76      C      -4.5047687537     1.0933725778    -4.0402120153
   77      H      -4.9965846609     2.0207420388    -4.3169789922
   78      C      -3.2956795027     1.1423460532    -3.3610462011
   79      C      -6.3997146154    -0.1503945480    -5.1255992448
   80      H      -6.8004221626    -1.1616330106    -5.1906587235
   81      H      -7.1554013159     0.4741360227    -4.6467280231
   82      H      -6.2777995504     0.2190381081    -6.1458024055
   83      C      -2.6705974870     2.4625958078    -3.0081144975
   84      H      -3.2821781626     3.3023616945    -3.3382687899
   85      H      -1.6841271992     2.5681433557    -3.4647819733
   86      H      -2.5285962227     2.5564095197    -1.9292783598
   87      C      -2.5696333001    -2.5556661042    -2.9340881388
   88      H      -3.1440402492    -3.4264142231    -3.2508913041
   89      H      -2.4352569780    -2.6216504265    -1.8522356890
   90      H      -1.5753897434    -2.6333124938    -3.3795236474
 ----------------------------------------------------------------

   15   -1973.7144521281      5.53E-09 Convergence criterion met
 Total energy in the final basis set = -1973.71445213

         TDDFT/TDA Excitation Energies
 ---------------------------------------------------

 Excited state   1: excitation energy (eV) =    2.2776
 Total energy for state  1:                 -1973.63075068 au
    Multiplicity: Triplet
    Trans. Mom.:  0.0000 X   0.0000 Y   0.0000 Z
    Strength   :     0.0000000000
    D(167) --> V(  2) amplitude = -0.2503
    D(171) --> V(  1) amplitude = -0.4682
    D(172) --> V(  1) amplitude =  0.7880

 Excited state   2: excitation energy (eV) =    2.4332
 Total energy for state  2:                 -1973.62503405 au
    Multiplicity: Triplet
    Trans. Mom.:  0.0000 X   0.0000 Y   0.0000 Z
    Strength   :     0.0000000000
    D(174) --> V(  1) amplitude =  0.9592

 Excited state   3: excitation energy (eV) =    2.4517
 Total energy for state  3:                 -1973.62435496 au
    Multiplicity: Triplet
    Trans. Mom.:  0.0000 X   0.0000 Y   0.0000 Z
    Strength   :     0.0000000000
    D(170) --> V(  2) amplitude = -0.4793
    D(173) --> V(  1) amplitude =  0.7934

 Excited state   4: excitation energy (eV) =    2.4751
 Total energy for state  4:                 -1973.62349533 au
    Multiplicity: Singlet
    Trans. Mom.:  0.0003 X   0.0054 Y  -0.0244 Z
    Strength   :     0.0000379751
    D(174) --> V(  1) amplitude =  0.9733

 Excited state   5: excitation energy (eV) =    2.5109
 Total energy for state  5:                 -1973.62217730 au
    Multiplicity: Triplet
    Trans. Mom.:  0.0000 X   0.0000 Y   0.0000 Z
    Strength   :     0.0000000000
    D(170) --> V(  1) amplitude =  0.7390
    D(170) --> V(  4) amplitude =  0.2281
    D(173) --> V(  2) amplitude = -0.5506

 Excited state   6: excitation energy (eV) =    2.7677
 Total energy for state  6:                 -1973.61274051 au
    Multiplicity: Triplet
    Trans. Mom.:  0.0000 X   0.0000 Y   0.0000 Z
    Strength   :     0.0000000000
    D(167) --> V(  1) amplitude = -0.7048
    D(171) --> V(  2) amplitude = -0.2946
    D(172) --> V(  2) amplitude =  0.4773

 Excited state   7: excitation energy (eV) =    2.9497
 Total energy for state  7:                 -1973.60605125 au
    Multiplicity: Singlet
    Trans. Mom.: -0.0415 X  -0.0016 Y   0.0620 Z
    Strength   :     0.0004023478
    D(171) --> V(  1) amplitude = -0.4447
    D(172) --> V(  1) amplitude =  0.8591

 Excited state   8: excitation energy (eV) =    3.1598
 Total energy for state  8:                 -1973.59833050 au
    Multiplicity: Singlet
    Trans. Mom.:  2.0081 X  -0.0014 Y  -3.5715 Z
    Strength   :     1.2996387228
    D(173) --> V(  1) amplitude =  0.9561

 Excited state   9: excitation energy (eV) =    3.1866
 Total energy for state  9:                 -1973.59734598 au
    Multiplicity: Triplet
    Trans. Mom.:  0.0000 X   0.0000 Y   0.0000 Z
    Strength   :     0.0000000000
    D(169) --> V(  1) amplitude =  0.9478

 Excited state  10: excitation energy (eV) =    3.2424
 Total energy for state 10:                 -1973.59529627 au
    Multiplicity: Singlet
    Trans. Mom.:  0.0233 X   0.0014 Y  -0.0810 Z
    Strength   :     0.0005642441
    D(169) --> V(  1) amplitude =  0.9517

 Excited state  11: excitation energy (eV) =    3.2677
 Total energy for state 11:                 -1973.59436706 au
    Multiplicity: Singlet
    Trans. Mom.: -0.2489 X  -0.0024 Y   0.4213 Z
    Strength   :     0.0191672084
    D(171) --> V(  1) amplitude =  0.8626
    D(172) --> V(  1) amplitude =  0.4514

 Excited state  12: excitation energy (eV) =    3.4699
 Total energy for state 12:                 -1973.58693672 au
    Multiplicity: Singlet
    Trans. Mom.: -0.0590 X  -0.0052 Y   0.0044 Z
    Strength   :     0.0003002325
    D(170) --> V(  1) amplitude =  0.9374

 ---------------------------------------------------

                    Orbital Energies (a.u.)
 --------------------------------------------------------------

 Alpha MOs
 -- Occupied --
-10.473 -10.473 -10.471 -10.471 -10.471 -10.471 -10.470 -10.470
-10.470 -10.470 -10.469 -10.468 -10.467 -10.467 -10.467 -10.467
-10.466 -10.466 -10.464 -10.463 -10.463 -10.462 -10.462 -10.462
-10.458 -10.458 -10.457 -10.457 -10.455 -10.455 -10.455 -10.443
-10.442 -10.440 -10.440 -10.440 -10.440 -10.438 -10.438 -10.437
-10.432 -10.432 -10.431 -10.427 -10.418 -10.417 -10.417 -10.416
-10.414 -10.407  -6.954  -6.943  -1.023  -1.023  -0.969  -0.966
 -0.964  -0.941  -0.939  -0.939  -0.915  -0.906  -0.878  -0.876
 -0.863  -0.863  -0.862  -0.854  -0.852  -0.852  -0.830  -0.819
 -0.818  -0.811  -0.786  -0.768  -0.765  -0.764  -0.750  -0.745
 -0.740  -0.732  -0.730  -0.726  -0.695  -0.687  -0.685  -0.673
 -0.655  -0.651  -0.646  -0.645  -0.630  -0.622  -0.600  -0.595
 -0.595  -0.592  -0.588  -0.581  -0.581  -0.557  -0.549  -0.548
 -0.543  -0.532  -0.530  -0.529  -0.523  -0.513  -0.509  -0.503
 -0.499  -0.499  -0.495  -0.494  -0.493  -0.489  -0.486  -0.485
 -0.482  -0.475  -0.472  -0.471  -0.470  -0.469  -0.468  -0.462
 -0.460  -0.458  -0.456  -0.451  -0.451  -0.449  -0.447  -0.444
 -0.444  -0.440  -0.437  -0.431  -0.431  -0.429  -0.418  -0.415
 -0.403  -0.403  -0.402  -0.402  -0.399  -0.398  -0.397  -0.391
 -0.389  -0.386  -0.385  -0.377  -0.367  -0.362  -0.359  -0.357
 -0.353  -0.337  -0.328  -0.323  -0.303  -0.302  -0.290  -0.282
 -0.273  -0.269  -0.266  -0.264  -0.262  -0.244

          Ground-State Mulliken Net Atomic Charges

     Atom                 Charge (a.u.)
  ----------------------------------------
      1 C                    -0.155055
      2 C                    -0.390816
      3 H                     0.265364
      4 C                     0.070376
      5 C                    -0.153563
      6 C                    -0.408504
      7 H                     0.245007
      8 C                     0.097829
      9 C                     0.178855
     10 C                    -0.390505
     11 H                     0.262571
     12 C                    -0.073272
     13 C                     0.218055
     14 C                     0.177104
     15 C                    -0.400552
     16 H                     0.253170
     17 C                    -0.235370
     18 H                     0.263364
     19 C                    -0.347804
     20 H                     0.258054
     21 C                    -0.351541
     22 H                     0.258550
     23 C                    -0.234216
     24 H                     0.259767
     25 B                     0.679801
     26 C                    -0.156185
     27 C                    -0.392359
     28 H                     0.264021
     29 C                     0.070820
     30 C                     0.098540
     31 C                    -0.408725
     32 H                     0.244669
     33 C                    -0.153495
     34 C                     0.178149
     35 C                    -0.389678
     36 H                     0.262462
     37 C                    -0.072229
     38 C                     0.219772
     39 C                     0.174958
     40 C                    -0.399857
     41 H                     0.253293
     42 C                    -0.235693
     43 H                     0.263261
     44 C                    -0.348686
     45 H                     0.258096
     46 C                    -0.234206
     47 H                     0.259956
     48 C                    -0.351940
     49 H                     0.258492
     50 B                     0.676959
     51 C                    -0.255281
     52 C                     0.069764
     53 C                    -0.351373
     54 H                     0.229720
     55 C                     0.104698
     56 C                    -0.360336
     57 H                     0.231693
     58 C                     0.069642
     59 C                    -0.722077
     60 H                     0.239846
     61 H                     0.240129
     62 H                     0.240475
     63 C                    -0.770694
     64 H                     0.256416
     65 H                     0.240329
     66 H                     0.240119
     67 C                    -0.770446
     68 H                     0.256502
     69 H                     0.240042
     70 H                     0.240030
     71 C                    -0.219561
     72 C                     0.045584
     73 C                    -0.373383
     74 H                     0.228942
     75 C                     0.106852
     76 C                    -0.363181
     77 H                     0.227446
     78 C                     0.048243
     79 C                    -0.722734
     80 H                     0.239754
     81 H                     0.239497
     82 H                     0.241382
     83 C                    -0.771459
     84 H                     0.253519
     85 H                     0.245282
     86 H                     0.245230
     87 C                    -0.772457
     88 H                     0.253923
     89 H                     0.245488
     90 H                     0.245369
  ----------------------------------------
  Sum of atomic charges =    -0.000000

                    Cartesian Multipole Moments
 -----------------------------------------------------------------
    Charge (ESU x 10^10)
                -0.0000
    Dipole Moment (Debye)
         X       1.5539      Y      -0.0406      Z       0.9196
       Tot       1.8061
    Quadrupole Moments (Debye-Ang)
        XX    -243.4360     XY      -0.5976     YY    -300.9572
        XZ      -7.3416     YZ      -0.1042     ZZ    -237.9074

 Total job time:  8210.11s(wall), 27264.78s(cpu)
        *  Thank you very much for using Q-Chem.  Have a nice day.  *
