 Q-Chem 5.0, Q-Chem, Inc., Pleasanton, CA (2017)
 Q-Chem 5.0.1 for Intel X86 EM64T Linux

User input:
--------------------------------------------------------------
$solvent
dielectric      4.33
dielectric_infi 1.83
$end

$rem
threads 8
jobtype	sp
method PBEh-3c
basis def2-mSVP
mem_static	1024
mem_total	14000
sym_ignore	true
cis_n_roots             6
cis_singlets            false
cis_triplets		true
rpa                     false
calc_soc 		true
cis_moments             true
cis_relaxed_density	true
solvent_method		pcm
$end

$pcm
StateSpecific   5
ChargeSeparation Excited
$end

$molecule
read tCTopt.mol
$end

--------------------------------------------------------------

   14   -1973.7173666582      8.26E-09 Convergence criterion met
 Total energy in the final basis set = -1973.71736666
 Total job time:  4810.62s(wall), 13937.50s(cpu)
        *  Thank you very much for using Q-Chem.  Have a nice day.  *
 Q-Chem 5.0, Q-Chem, Inc., Pleasanton, CA (2017)
 Q-Chem 5.0.1 for Intel X86 EM64T Linux

User input:
--------------------------------------------------------------
$rem
threads 8
jobtype sp
method PBEh-3c
basis def2-mSVP
mem_static      1024
mem_total       14000
sym_ignore      true
cis_n_roots             6
cis_singlets            true
cis_triplets            true
rpa                     false
calc_soc                true
cis_moments             true
cis_relaxed_density     true
solvent_method          pcm
$end

$molecule
read
$end

$pcm
statespecific           Marcus
$end

$solvent
dielectric      4.33
dielectric_infi 1.83
$end

--------------------------------------------------------------

             Standard Nuclear Orientation (Angstroms)
    I     Atom           X                Y                Z
 ----------------------------------------------------------------
    1      C       0.0000000000     0.0000000000     0.0000000000
    2      C       0.0000000000     0.0000000000     1.4102550000
    3      H       0.9360997242     0.0000000000     1.9608911666
    4      C      -1.1802910718    -0.0003792248     2.1038913171
    5      C      -1.2408217572    -0.0051173990    -0.6971298116
    6      C      -2.4419890213    -0.0079067929     0.0398187957
    7      H      -3.3844734185    -0.0135801935    -0.4975105738
    8      C      -2.4276574980    -0.0041394871     1.4160360195
    9      C      -1.4426100642     0.0028156111     3.5397365623
   10      C      -0.6659386828     0.0079603302     4.6713030530
   11      H       0.4163316130     0.0101364321     4.6229295686
   12      C      -2.8432994655     0.0005518061     3.6792592710
   13      C      -3.4976550634     0.0031048068     4.9084116493
   14      C      -3.4887304721    -0.0041907352     2.4241442904
   15      C      -4.8604032747    -0.0072939022     2.4090828511
   16      H      -5.4204367369    -0.0116258729     1.4826184953
   17      C      -1.3051593458     0.0106236796     5.9313075243
   18      H      -0.6926618280     0.0149098137     6.8241425188
   19      C      -2.6744114974     0.0081147427     6.0606727998
   20      H      -3.1227939053     0.0105280486     7.0467848381
   21      C      -4.9114968652     0.0004637293     4.8590411056
   22      H      -5.4874008061     0.0021665319     5.7763719344
   23      C      -5.5532742083    -0.0045394326     3.6428218247
   24      H      -6.6355035783    -0.0066656235     3.6237780528
   25      B       1.3075670719     0.0064650218    -0.7901179280
   26      C       1.2975227164     0.0130393969    -2.3181717735
   27      C       2.5009665065     0.0199588137    -3.0534777285
   28      H       3.4575398117     0.0246615641    -2.5390469959
   29      C       2.4773283890     0.0181110967    -4.4230024995
   30      C       1.2402267857     0.0092069228    -5.1300245968
   31      C       0.0571803764     0.0040275505    -4.4247167733
   32      H      -0.8933016871    -0.0033002902    -4.9483786355
   33      C       0.0545510416     0.0055550703    -3.0150940532
   34      C       3.5658103353     0.0183700282    -5.3927113965
   35      C       4.9352753740     0.0246805288    -5.3129215932
   36      H       5.4531668353     0.0339088609    -4.3613507863
   37      C       2.9577672306     0.0073389710    -6.6622043143
   38      C       3.6673796301     0.0001345922    -7.8586663409
   39      C       1.5500308157     0.0019013238    -6.5596432953
   40      C       0.8222445731    -0.0109689745    -7.7217778254
   41      H      -0.2603526574    -0.0161595564    -7.7166116694
   42      C       5.6800593497     0.0179990304    -6.5130093784
   43      H       6.7611097925     0.0224267708    -6.4533761544
   44      C       5.0794990318     0.0058766901    -7.7508339287
   45      H       5.6906543526     0.0004222399    -8.6450724393
   46      C       1.5157275310    -0.0184758976    -8.9549288447
   47      H       0.9363811951    -0.0292032458    -9.8691131414
   48      C       2.8884418788    -0.0131093241    -9.0398973282
   49      H       3.3712401759    -0.0196534627   -10.0092763372
   50      B      -1.2733688875    -0.0107922363    -2.2357901545
   51      C       2.6615840855    -0.0022041076    -0.0134125237
   52      C       3.2810458149    -1.2454651759     0.3599347152
   53      C       4.4446143386    -1.2302064299     1.0791453196
   54      H       4.9143974201    -2.1623314214     1.3700900219
   55      C       5.0579946306    -0.0166977759     1.4586842291
   56      C       4.4655651727     1.2014485909     1.0920430931
   57      H       4.9437163987     2.1266922874     1.3882277655
   58      C       3.2979933343     1.2319121645     0.3715043869
   59      C       6.3181070862    -0.0508530234     2.2449116021
   60      H       6.7224175215     0.9415017615     2.4280881209
   61      H       7.0768446420    -0.6456221009     1.7317884742
   62      H       6.1494625513    -0.5352244448     3.2102049675
   63      C       2.6584308006     2.5184572576    -0.0163055616
   64      H       3.2417886009     3.3773476388     0.3104214124
   65      H       2.5284487996     2.5717940961    -1.0982965582
   66      H       1.6580979808     2.5902961121     0.4148599720
   67      C       2.6272962442    -2.5249838804    -0.0371591517
   68      H       3.2082628517    -3.3906937449     0.2764500190
   69      H       2.4905097807    -2.5678186057    -1.1183553227
   70      H       1.6312062754    -2.5966304606     0.4026158772
   71      C      -2.6476472052    -0.0463462531    -2.9973713133
   72      C      -3.2440603782    -1.2695586426    -3.3234620204
   73      C      -4.4559574382    -1.2910819837    -4.0046263929
   74      H      -4.9071614730    -2.2463830396    -4.2528892911
   75      C      -5.1006913639    -0.1186816112    -4.3743903917
   76      C      -4.5047687537     1.0933725778    -4.0402120153
   77      H      -4.9965846609     2.0207420388    -4.3169789922
   78      C      -3.2956795027     1.1423460532    -3.3610462011
   79      C      -6.3997146154    -0.1503945480    -5.1255992448
   80      H      -6.8004221626    -1.1616330106    -5.1906587235
   81      H      -7.1554013159     0.4741360227    -4.6467280231
   82      H      -6.2777995504     0.2190381081    -6.1458024055
   83      C      -2.6705974870     2.4625958078    -3.0081144975
   84      H      -3.2821781626     3.3023616945    -3.3382687899
   85      H      -1.6841271992     2.5681433557    -3.4647819733
   86      H      -2.5285962227     2.5564095197    -1.9292783598
   87      C      -2.5696333001    -2.5556661042    -2.9340881388
   88      H      -3.1440402492    -3.4264142231    -3.2508913041
   89      H      -2.4352569780    -2.6216504265    -1.8522356890
   90      H      -1.5753897434    -2.6333124938    -3.3795236474
 ----------------------------------------------------------------

   15   -1973.7122186959      5.62E-09 Convergence criterion met
 Total energy in the final basis set = -1973.71221870

         TDDFT/TDA Excitation Energies
 ---------------------------------------------------

 Excited state   1: excitation energy (eV) =    2.2670
 Total energy for state  1:                 -1973.62890900 au
    Multiplicity: Triplet
    Trans. Mom.:  0.0000 X   0.0000 Y   0.0000 Z
    Strength   :     0.0000000000
    D(167) --> V(  2) amplitude =  0.2508
    D(172) --> V(  1) amplitude =  0.9062

 Excited state   2: excitation energy (eV) =    2.4502
 Total energy for state  2:                 -1973.62217701 au
    Multiplicity: Triplet
    Trans. Mom.:  0.0000 X   0.0000 Y   0.0000 Z
    Strength   :     0.0000000000
    D(170) --> V(  2) amplitude = -0.2268
    D(171) --> V(  2) amplitude =  0.4268
    D(173) --> V(  1) amplitude =  0.8015

 Excited state   3: excitation energy (eV) =    2.5096
 Total energy for state  3:                 -1973.61999370 au
    Multiplicity: Triplet
    Trans. Mom.:  0.0000 X   0.0000 Y   0.0000 Z
    Strength   :     0.0000000000
    D(170) --> V(  1) amplitude = -0.3417
    D(171) --> V(  1) amplitude =  0.6428
    D(173) --> V(  2) amplitude =  0.5464

 Excited state   4: excitation energy (eV) =    2.5168
 Total energy for state  4:                 -1973.61972839 au
    Multiplicity: Triplet
    Trans. Mom.:  0.0000 X   0.0000 Y   0.0000 Z
    Strength   :     0.0000000000
    D(174) --> V(  1) amplitude =  0.9495

 Excited state   5: excitation energy (eV) =    2.5602
 Total energy for state  5:                 -1973.61813354 au
    Multiplicity: Singlet
    Trans. Mom.:  0.0017 X   0.0055 Y  -0.0256 Z
    Strength   :     0.0000430622
    D(174) --> V(  1) amplitude =  0.9725

 Excited state   6: excitation energy (eV) =    2.7583
 Total energy for state  6:                 -1973.61085295 au
    Multiplicity: Triplet
    Trans. Mom.:  0.0000 X   0.0000 Y   0.0000 Z
    Strength   :     0.0000000000
    D(167) --> V(  1) amplitude = -0.7066
    D(172) --> V(  2) amplitude = -0.5536

 Excited state   7: excitation energy (eV) =    2.9405
 Total energy for state  7:                 -1973.60415807 au
    Multiplicity: Singlet
    Trans. Mom.:  0.0229 X   0.0015 Y  -0.0294 Z
    Strength   :     0.0001000575
    D(172) --> V(  1) amplitude =  0.9609

 Excited state   8: excitation energy (eV) =    3.1695
 Total energy for state  8:                 -1973.59574088 au
    Multiplicity: Singlet
    Trans. Mom.:  1.9855 X  -0.0013 Y  -3.5290 Z
    Strength   :     1.2732182051
    D(173) --> V(  1) amplitude =  0.9547

 Excited state   9: excitation energy (eV) =    3.1764
 Total energy for state  9:                 -1973.59548974 au
    Multiplicity: Triplet
    Trans. Mom.:  0.0000 X   0.0000 Y   0.0000 Z
    Strength   :     0.0000000000
    D(169) --> V(  1) amplitude =  0.9495

 Excited state  10: excitation energy (eV) =    3.2314
 Total energy for state 10:                 -1973.59346605 au
    Multiplicity: Singlet
    Trans. Mom.:  0.0880 X   0.0017 Y  -0.1925 Z
    Strength   :     0.0035453541
    D(169) --> V(  1) amplitude =  0.9630

 Excited state  11: excitation energy (eV) =    3.3599
 Total energy for state 11:                 -1973.58874450 au
    Multiplicity: Singlet
    Trans. Mom.: -0.1331 X  -0.0023 Y   0.2118 Z
    Strength   :     0.0051528364
    D(170) --> V(  1) amplitude =  0.8492
    D(171) --> V(  1) amplitude =  0.4864

 Excited state  12: excitation energy (eV) =    3.4796
 Total energy for state 12:                 -1973.58434694 au
    Multiplicity: Singlet
    Trans. Mom.:  0.0547 X   0.0053 Y  -0.0063 Z
    Strength   :     0.0002612352
    D(170) --> V(  1) amplitude = -0.4664
    D(171) --> V(  1) amplitude =  0.8130

 ---------------------------------------------------

                    Orbital Energies (a.u.)
 --------------------------------------------------------------

 Alpha MOs
 -- Occupied --
-10.471 -10.471 -10.470 -10.470 -10.469 -10.469 -10.468 -10.468
-10.468 -10.468 -10.467 -10.467 -10.466 -10.465 -10.465 -10.465
-10.465 -10.465 -10.462 -10.462 -10.461 -10.461 -10.460 -10.460
-10.457 -10.456 -10.455 -10.455 -10.453 -10.453 -10.453 -10.441
-10.441 -10.441 -10.440 -10.439 -10.439 -10.438 -10.436 -10.436
-10.430 -10.430 -10.430 -10.425 -10.420 -10.420 -10.418 -10.417
-10.415 -10.411  -6.951  -6.942  -1.021  -1.021  -0.967  -0.964
 -0.962  -0.942  -0.938  -0.938  -0.913  -0.904  -0.876  -0.874
 -0.864  -0.862  -0.860  -0.855  -0.851  -0.850  -0.828  -0.818
 -0.816  -0.809  -0.785  -0.770  -0.763  -0.762  -0.751  -0.746
 -0.739  -0.731  -0.729  -0.725  -0.693  -0.685  -0.684  -0.671
 -0.654  -0.650  -0.644  -0.644  -0.631  -0.624  -0.599  -0.594
 -0.594  -0.591  -0.586  -0.579  -0.579  -0.555  -0.547  -0.546
 -0.543  -0.531  -0.531  -0.529  -0.522  -0.511  -0.508  -0.501
 -0.498  -0.498  -0.494  -0.491  -0.491  -0.488  -0.484  -0.483
 -0.481  -0.475  -0.471  -0.469  -0.469  -0.469  -0.468  -0.460
 -0.460  -0.459  -0.454  -0.453  -0.451  -0.449  -0.447  -0.445
 -0.444  -0.439  -0.435  -0.433  -0.429  -0.428  -0.416  -0.414
 -0.403  -0.401  -0.401  -0.401  -0.400  -0.396  -0.396  -0.390
 -0.386  -0.384  -0.384  -0.376  -0.368  -0.363  -0.357  -0.356
 -0.352  -0.337  -0.326  -0.320  -0.301  -0.300  -0.288  -0.279
 -0.270  -0.267  -0.267  -0.262  -0.261  -0.245

          Ground-State Mulliken Net Atomic Charges

     Atom                 Charge (a.u.)
  ----------------------------------------
      1 C                    -0.154474
      2 C                    -0.389985
      3 H                     0.259614
      4 C                     0.073342
      5 C                    -0.152987
      6 C                    -0.406857
      7 H                     0.243977
      8 C                     0.101399
      9 C                     0.182398
     10 C                    -0.388883
     11 H                     0.255770
     12 C                    -0.072033
     13 C                     0.223086
     14 C                     0.180868
     15 C                    -0.398146
     16 H                     0.248829
     17 C                    -0.231141
     18 H                     0.257483
     19 C                    -0.345645
     20 H                     0.252186
     21 C                    -0.349434
     22 H                     0.252681
     23 C                    -0.229614
     24 H                     0.254651
     25 B                     0.681525
     26 C                    -0.155575
     27 C                    -0.391527
     28 H                     0.258249
     29 C                     0.073803
     30 C                     0.102116
     31 C                    -0.407004
     32 H                     0.243578
     33 C                    -0.152915
     34 C                     0.181685
     35 C                    -0.388052
     36 H                     0.255719
     37 C                    -0.070991
     38 C                     0.224789
     39 C                     0.178717
     40 C                    -0.397473
     41 H                     0.248900
     42 C                    -0.231470
     43 H                     0.257417
     44 C                    -0.346521
     45 H                     0.252234
     46 C                    -0.229607
     47 H                     0.254819
     48 C                    -0.349828
     49 H                     0.252632
     50 B                     0.682150
     51 C                    -0.253689
     52 C                     0.070012
     53 C                    -0.349833
     54 H                     0.224420
     55 C                     0.106095
     56 C                    -0.358073
     57 H                     0.226228
     58 C                     0.069604
     59 C                    -0.720607
     60 H                     0.237859
     61 H                     0.238304
     62 H                     0.238638
     63 C                    -0.768865
     64 H                     0.252342
     65 H                     0.241827
     66 H                     0.241633
     67 C                    -0.768630
     68 H                     0.252403
     69 H                     0.241667
     70 H                     0.241608
     71 C                    -0.220394
     72 C                     0.048307
     73 C                    -0.369338
     74 H                     0.223861
     75 C                     0.110435
     76 C                    -0.359816
     77 H                     0.222579
     78 C                     0.050899
     79 C                    -0.720963
     80 H                     0.237585
     81 H                     0.237718
     82 H                     0.239728
     83 C                    -0.770020
     84 H                     0.250198
     85 H                     0.245485
     86 H                     0.245452
     87 C                    -0.771068
     88 H                     0.250609
     89 H                     0.245742
     90 H                     0.245600
  ----------------------------------------
  Sum of atomic charges =    -0.000000

                    Cartesian Multipole Moments
 -----------------------------------------------------------------
    Charge (ESU x 10^10)
                -0.0000
    Dipole Moment (Debye)
         X       1.1839      Y      -0.0393      Z       0.7023
       Tot       1.3771
    Quadrupole Moments (Debye-Ang)
        XX    -247.0576     XY      -0.5680     YY    -301.2632
        XZ      -7.0077     YZ      -0.0931     ZZ    -240.7516

 Total job time:  6886.06s(wall), 23472.56s(cpu)
        *  Thank you very much for using Q-Chem.  Have a nice day.  *
