 Q-Chem 5.0, Q-Chem, Inc., Pleasanton, CA (2017)
 Q-Chem 5.0.1 for Intel X86 EM64T Linux

User input:
--------------------------------------------------------------
$solvent
dielectric      35.7
dielectric_infi 1.81
$end

$rem
threads 8
jobtype	sp
method PBEh-3c
basis def2-mSVP
mem_static	1024
mem_total	14000
sym_ignore	true
cis_n_roots             6
cis_singlets            false
cis_triplets		true
rpa                     false
calc_soc 		true
cis_moments             true
cis_relaxed_density	true
solvent_method		pcm
$end

$pcm
StateSpecific   5
ChargeSeparation Excited
$end

$molecule
read tCTopt.mol
$end

--------------------------------------------------------------

   14   -1973.7235865082      6.58E-09 Convergence criterion met
 Total energy in the final basis set = -1973.72358651
 Q-Chem 5.0, Q-Chem, Inc., Pleasanton, CA (2017)
 Q-Chem 5.0.1 for Intel X86 EM64T Linux

User input:
--------------------------------------------------------------
$rem
threads 8
jobtype sp
method PBEh-3c
basis def2-mSVP
mem_static      1024
mem_total       14000
sym_ignore      true
cis_n_roots             6
cis_singlets            true
cis_triplets            true
rpa                     false
calc_soc                true
cis_moments             true
cis_relaxed_density     true
solvent_method          pcm
$end

$molecule
read
$end

$pcm
statespecific           Marcus
$end

$solvent
dielectric      35.7
dielectric_infi 1.81
$end

--------------------------------------------------------------

             Standard Nuclear Orientation (Angstroms)
    I     Atom           X                Y                Z
 ----------------------------------------------------------------
    1      C       0.0000000000     0.0000000000     0.0000000000
    2      C       0.0000000000     0.0000000000     1.4102550000
    3      H       0.9360997242     0.0000000000     1.9608911666
    4      C      -1.1802910718    -0.0003792248     2.1038913171
    5      C      -1.2408217572    -0.0051173990    -0.6971298116
    6      C      -2.4419890213    -0.0079067929     0.0398187957
    7      H      -3.3844734185    -0.0135801935    -0.4975105738
    8      C      -2.4276574980    -0.0041394871     1.4160360195
    9      C      -1.4426100642     0.0028156111     3.5397365623
   10      C      -0.6659386828     0.0079603302     4.6713030530
   11      H       0.4163316130     0.0101364321     4.6229295686
   12      C      -2.8432994655     0.0005518061     3.6792592710
   13      C      -3.4976550634     0.0031048068     4.9084116493
   14      C      -3.4887304721    -0.0041907352     2.4241442904
   15      C      -4.8604032747    -0.0072939022     2.4090828511
   16      H      -5.4204367369    -0.0116258729     1.4826184953
   17      C      -1.3051593458     0.0106236796     5.9313075243
   18      H      -0.6926618280     0.0149098137     6.8241425188
   19      C      -2.6744114974     0.0081147427     6.0606727998
   20      H      -3.1227939053     0.0105280486     7.0467848381
   21      C      -4.9114968652     0.0004637293     4.8590411056
   22      H      -5.4874008061     0.0021665319     5.7763719344
   23      C      -5.5532742083    -0.0045394326     3.6428218247
   24      H      -6.6355035783    -0.0066656235     3.6237780528
   25      B       1.3075670719     0.0064650218    -0.7901179280
   26      C       1.2975227164     0.0130393969    -2.3181717735
   27      C       2.5009665065     0.0199588137    -3.0534777285
   28      H       3.4575398117     0.0246615641    -2.5390469959
   29      C       2.4773283890     0.0181110967    -4.4230024995
   30      C       1.2402267857     0.0092069228    -5.1300245968
   31      C       0.0571803764     0.0040275505    -4.4247167733
   32      H      -0.8933016871    -0.0033002902    -4.9483786355
   33      C       0.0545510416     0.0055550703    -3.0150940532
   34      C       3.5658103353     0.0183700282    -5.3927113965
   35      C       4.9352753740     0.0246805288    -5.3129215932
   36      H       5.4531668353     0.0339088609    -4.3613507863
   37      C       2.9577672306     0.0073389710    -6.6622043143
   38      C       3.6673796301     0.0001345922    -7.8586663409
   39      C       1.5500308157     0.0019013238    -6.5596432953
   40      C       0.8222445731    -0.0109689745    -7.7217778254
   41      H      -0.2603526574    -0.0161595564    -7.7166116694
   42      C       5.6800593497     0.0179990304    -6.5130093784
   43      H       6.7611097925     0.0224267708    -6.4533761544
   44      C       5.0794990318     0.0058766901    -7.7508339287
   45      H       5.6906543526     0.0004222399    -8.6450724393
   46      C       1.5157275310    -0.0184758976    -8.9549288447
   47      H       0.9363811951    -0.0292032458    -9.8691131414
   48      C       2.8884418788    -0.0131093241    -9.0398973282
   49      H       3.3712401759    -0.0196534627   -10.0092763372
   50      B      -1.2733688875    -0.0107922363    -2.2357901545
   51      C       2.6615840855    -0.0022041076    -0.0134125237
   52      C       3.2810458149    -1.2454651759     0.3599347152
   53      C       4.4446143386    -1.2302064299     1.0791453196
   54      H       4.9143974201    -2.1623314214     1.3700900219
   55      C       5.0579946306    -0.0166977759     1.4586842291
   56      C       4.4655651727     1.2014485909     1.0920430931
   57      H       4.9437163987     2.1266922874     1.3882277655
   58      C       3.2979933343     1.2319121645     0.3715043869
   59      C       6.3181070862    -0.0508530234     2.2449116021
   60      H       6.7224175215     0.9415017615     2.4280881209
   61      H       7.0768446420    -0.6456221009     1.7317884742
   62      H       6.1494625513    -0.5352244448     3.2102049675
   63      C       2.6584308006     2.5184572576    -0.0163055616
   64      H       3.2417886009     3.3773476388     0.3104214124
   65      H       2.5284487996     2.5717940961    -1.0982965582
   66      H       1.6580979808     2.5902961121     0.4148599720
   67      C       2.6272962442    -2.5249838804    -0.0371591517
   68      H       3.2082628517    -3.3906937449     0.2764500190
   69      H       2.4905097807    -2.5678186057    -1.1183553227
   70      H       1.6312062754    -2.5966304606     0.4026158772
   71      C      -2.6476472052    -0.0463462531    -2.9973713133
   72      C      -3.2440603782    -1.2695586426    -3.3234620204
   73      C      -4.4559574382    -1.2910819837    -4.0046263929
   74      H      -4.9071614730    -2.2463830396    -4.2528892911
   75      C      -5.1006913639    -0.1186816112    -4.3743903917
   76      C      -4.5047687537     1.0933725778    -4.0402120153
   77      H      -4.9965846609     2.0207420388    -4.3169789922
   78      C      -3.2956795027     1.1423460532    -3.3610462011
   79      C      -6.3997146154    -0.1503945480    -5.1255992448
   80      H      -6.8004221626    -1.1616330106    -5.1906587235
   81      H      -7.1554013159     0.4741360227    -4.6467280231
   82      H      -6.2777995504     0.2190381081    -6.1458024055
   83      C      -2.6705974870     2.4625958078    -3.0081144975
   84      H      -3.2821781626     3.3023616945    -3.3382687899
   85      H      -1.6841271992     2.5681433557    -3.4647819733
   86      H      -2.5285962227     2.5564095197    -1.9292783598
   87      C      -2.5696333001    -2.5556661042    -2.9340881388
   88      H      -3.1440402492    -3.4264142231    -3.2508913041
   89      H      -2.4352569780    -2.6216504265    -1.8522356890
   90      H      -1.5753897434    -2.6333124938    -3.3795236474
 ----------------------------------------------------------------

   15   -1973.7145257952      5.62E-09 Convergence criterion met
 Total energy in the final basis set = -1973.71452580

         TDDFT/TDA Excitation Energies
 ---------------------------------------------------

 Excited state   1: excitation energy (eV) =    2.2757
 Total energy for state  1:                 -1973.63089549 au
    Multiplicity: Triplet
    Trans. Mom.:  0.0000 X   0.0000 Y   0.0000 Z
    Strength   :     0.0000000000
    D(174) --> V(  1) amplitude =  0.9447

 Excited state   2: excitation energy (eV) =    2.2912
 Total energy for state  2:                 -1973.63032500 au
    Multiplicity: Triplet
    Trans. Mom.:  0.0000 X   0.0000 Y   0.0000 Z
    Strength   :     0.0000000000
    D(167) --> V(  2) amplitude = -0.2450
    D(171) --> V(  1) amplitude =  0.8781
    D(174) --> V(  1) amplitude = -0.2128

 Excited state   3: excitation energy (eV) =    2.3150
 Total energy for state  3:                 -1973.62945011 au
    Multiplicity: Singlet
    Trans. Mom.: -0.0018 X   0.0047 Y  -0.0219 Z
    Strength   :     0.0000285827
    D(174) --> V(  1) amplitude =  0.9743

 Excited state   4: excitation energy (eV) =    2.4542
 Total energy for state  4:                 -1973.62433723 au
    Multiplicity: Triplet
    Trans. Mom.:  0.0000 X   0.0000 Y   0.0000 Z
    Strength   :     0.0000000000
    D(170) --> V(  2) amplitude =  0.4844
    D(172) --> V(  1) amplitude =  0.7957

 Excited state   5: excitation energy (eV) =    2.5130
 Total energy for state  5:                 -1973.62217453 au
    Multiplicity: Triplet
    Trans. Mom.:  0.0000 X   0.0000 Y   0.0000 Z
    Strength   :     0.0000000000
    D(170) --> V(  1) amplitude =  0.7395
    D(170) --> V(  4) amplitude =  0.2230
    D(172) --> V(  2) amplitude =  0.5512

 Excited state   6: excitation energy (eV) =    2.7774
 Total energy for state  6:                 -1973.61245988 au
    Multiplicity: Triplet
    Trans. Mom.:  0.0000 X   0.0000 Y   0.0000 Z
    Strength   :     0.0000000000
    D(167) --> V(  1) amplitude = -0.7020
    D(171) --> V(  2) amplitude =  0.5542

 Excited state   7: excitation energy (eV) =    2.9627
 Total energy for state  7:                 -1973.60564803 au
    Multiplicity: Singlet
    Trans. Mom.: -0.0522 X  -0.0018 Y   0.0783 Z
    Strength   :     0.0006434816
    D(171) --> V(  1) amplitude =  0.9049
    D(173) --> V(  1) amplitude =  0.3301

 Excited state   8: excitation energy (eV) =    3.0752
 Total energy for state  8:                 -1973.60151269 au
    Multiplicity: Triplet
    Trans. Mom.:  0.0000 X   0.0000 Y   0.0000 Z
    Strength   :     0.0000000000
    D(173) --> V(  1) amplitude =  0.9677

 Excited state   9: excitation energy (eV) =    3.0891
 Total energy for state  9:                 -1973.60100525 au
    Multiplicity: Singlet
    Trans. Mom.:  0.3108 X  -0.0021 Y  -0.5774 Z
    Strength   :     0.0325369219
    D(171) --> V(  1) amplitude = -0.3226
    D(173) --> V(  1) amplitude =  0.9303

 Excited state  10: excitation energy (eV) =    3.1772
 Total energy for state 10:                 -1973.59776677 au
    Multiplicity: Singlet
    Trans. Mom.:  1.9639 X  -0.0009 Y  -3.4842 Z
    Strength   :     1.2451602140
    D(172) --> V(  1) amplitude =  0.9482

 Excited state  11: excitation energy (eV) =    3.2650
 Total energy for state 11:                 -1973.59454003 au
    Multiplicity: Singlet
    Trans. Mom.: -0.0703 X  -0.0011 Y   0.1623 Z
    Strength   :     0.0025030827
    D(169) --> V(  1) amplitude = -0.9642

 Excited state  12: excitation energy (eV) =    3.4808
 Total energy for state 12:                 -1973.58660977 au
    Multiplicity: Singlet
    Trans. Mom.:  0.0693 X   0.0052 Y  -0.0033 Z
    Strength   :     0.0004132856
    D(170) --> V(  1) amplitude =  0.9370

 ---------------------------------------------------

                    Orbital Energies (a.u.)
 --------------------------------------------------------------

 Alpha MOs
 -- Occupied --
-10.476 -10.475 -10.473 -10.473 -10.473 -10.473 -10.472 -10.472
-10.472 -10.472 -10.470 -10.470 -10.469 -10.469 -10.469 -10.469
-10.468 -10.467 -10.466 -10.465 -10.465 -10.465 -10.464 -10.463
-10.460 -10.460 -10.460 -10.460 -10.458 -10.457 -10.457 -10.445
-10.445 -10.442 -10.442 -10.441 -10.441 -10.436 -10.436 -10.435
-10.435 -10.433 -10.431 -10.430 -10.414 -10.413 -10.413 -10.412
-10.411 -10.400  -6.956  -6.944  -1.026  -1.025  -0.972  -0.968
 -0.967  -0.942  -0.941  -0.936  -0.917  -0.908  -0.880  -0.879
 -0.865  -0.864  -0.859  -0.855  -0.854  -0.849  -0.832  -0.821
 -0.820  -0.813  -0.789  -0.768  -0.767  -0.764  -0.746  -0.745
 -0.741  -0.734  -0.730  -0.729  -0.697  -0.688  -0.687  -0.675
 -0.657  -0.653  -0.649  -0.648  -0.626  -0.618  -0.602  -0.597
 -0.596  -0.593  -0.590  -0.583  -0.582  -0.559  -0.551  -0.551
 -0.542  -0.534  -0.531  -0.525  -0.523  -0.515  -0.511  -0.505
 -0.501  -0.501  -0.496  -0.496  -0.496  -0.490  -0.489  -0.487
 -0.484  -0.475  -0.474  -0.472  -0.472  -0.469  -0.467  -0.465
 -0.461  -0.458  -0.456  -0.453  -0.451  -0.447  -0.446  -0.442
 -0.441  -0.440  -0.439  -0.434  -0.430  -0.426  -0.420  -0.416
 -0.405  -0.404  -0.404  -0.403  -0.399  -0.399  -0.394  -0.391
 -0.390  -0.389  -0.387  -0.379  -0.365  -0.361  -0.358  -0.358
 -0.353  -0.336  -0.330  -0.325  -0.305  -0.304  -0.293  -0.285
 -0.276  -0.271  -0.268  -0.265  -0.261  -0.240

          Ground-State Mulliken Net Atomic Charges

     Atom                 Charge (a.u.)
  ----------------------------------------
      1 C                    -0.155897
      2 C                    -0.391743
      3 H                     0.273373
      4 C                     0.067931
      5 C                    -0.154283
      6 C                    -0.410660
      7 H                     0.244951
      8 C                     0.094429
      9 C                     0.175833
     10 C                    -0.391825
     11 H                     0.269194
     12 C                    -0.074405
     13 C                     0.214142
     14 C                     0.173827
     15 C                    -0.402947
     16 H                     0.255850
     17 C                    -0.238514
     18 H                     0.268273
     19 C                    -0.349611
     20 H                     0.262413
     21 C                    -0.353346
     22 H                     0.262884
     23 C                    -0.237754
     24 H                     0.263521
     25 B                     0.678295
     26 C                    -0.157079
     27 C                    -0.393280
     28 H                     0.271936
     29 C                     0.068375
     30 C                     0.095143
     31 C                    -0.410953
     32 H                     0.244669
     33 C                    -0.154227
     34 C                     0.175135
     35 C                    -0.391006
     36 H                     0.268956
     37 C                    -0.073364
     38 C                     0.215870
     39 C                     0.171694
     40 C                    -0.402229
     41 H                     0.256024
     42 C                    -0.238831
     43 H                     0.268131
     44 C                    -0.350498
     45 H                     0.262457
     46 C                    -0.237739
     47 H                     0.263738
     48 C                    -0.353753
     49 H                     0.262826
     50 B                     0.669310
     51 C                    -0.258423
     52 C                     0.071713
     53 C                    -0.350631
     54 H                     0.234247
     55 C                     0.106047
     56 C                    -0.360131
     57 H                     0.236268
     58 C                     0.071992
     59 C                    -0.722727
     60 H                     0.241206
     61 H                     0.241862
     62 H                     0.242228
     63 C                    -0.771907
     64 H                     0.260481
     65 H                     0.237504
     66 H                     0.237277
     67 C                    -0.771664
     68 H                     0.260593
     69 H                     0.237014
     70 H                     0.237060
     71 C                    -0.218219
     72 C                     0.043006
     73 C                    -0.376345
     74 H                     0.232855
     75 C                     0.104043
     76 C                    -0.365627
     77 H                     0.231211
     78 C                     0.045723
     79 C                    -0.723967
     80 H                     0.241494
     81 H                     0.240970
     82 H                     0.242761
     83 C                    -0.772135
     84 H                     0.256259
     85 H                     0.244735
     86 H                     0.244683
     87 C                    -0.773089
     88 H                     0.256657
     89 H                     0.244938
     90 H                     0.244803
  ----------------------------------------
  Sum of atomic charges =    -0.000000

                    Cartesian Multipole Moments
 -----------------------------------------------------------------
    Charge (ESU x 10^10)
                -0.0000
    Dipole Moment (Debye)
         X       2.1855      Y      -0.0412      Z       1.2885
       Tot       2.5374
    Quadrupole Moments (Debye-Ang)
        XX    -239.6425     XY      -0.6287     YY    -300.7455
        XZ      -7.1664     YZ      -0.1193     ZZ    -236.4158

 Total job time:  9019.80s(wall), 31110.93s(cpu)
        *  Thank you very much for using Q-Chem.  Have a nice day.  *
