 Q-Chem 5.0, Q-Chem, Inc., Pleasanton, CA (2017)
 Q-Chem 5.0.1 for Intel X86 EM64T Linux

User input:
--------------------------------------------------------------
$solvent
dielectric      2.03
dielectric_infi 2.02
$end

$rem
threads 8
jobtype	sp
method PBEh-3c
basis def2-mSVP
mem_static	1024
mem_total	14000
sym_ignore	true
cis_n_roots             6
cis_singlets            false
cis_triplets		true
rpa                     false
calc_soc 		true
cis_moments             true
cis_relaxed_density	true
solvent_method		pcm
$end

$pcm
StateSpecific   5
ChargeSeparation Excited
$end

$molecule
read tCTopt.mol
$end

--------------------------------------------------------------

   15   -1973.7099494592      5.56E-09 Convergence criterion met
 Total energy in the final basis set = -1973.70994946
 Q-Chem 5.0, Q-Chem, Inc., Pleasanton, CA (2017)
 Q-Chem 5.0.1 for Intel X86 EM64T Linux

User input:
--------------------------------------------------------------
$rem
threads 8
jobtype sp
method PBEh-3c
basis def2-mSVP
mem_static      1024
mem_total       14000
sym_ignore      true
cis_n_roots             6
cis_singlets            true
cis_triplets            true
rpa                     false
calc_soc                true
cis_moments             true
cis_relaxed_density     true
solvent_method          pcm
$end

$molecule
read
$end

$pcm
statespecific           Marcus
$end

$solvent
dielectric      2.03
dielectric_infi 2.02
$end

--------------------------------------------------------------

             Standard Nuclear Orientation (Angstroms)
    I     Atom           X                Y                Z
 ----------------------------------------------------------------
    1      C       0.0000000000     0.0000000000     0.0000000000
    2      C       0.0000000000     0.0000000000     1.4102550000
    3      H       0.9360997242     0.0000000000     1.9608911666
    4      C      -1.1802910718    -0.0003792248     2.1038913171
    5      C      -1.2408217572    -0.0051173990    -0.6971298116
    6      C      -2.4419890213    -0.0079067929     0.0398187957
    7      H      -3.3844734185    -0.0135801935    -0.4975105738
    8      C      -2.4276574980    -0.0041394871     1.4160360195
    9      C      -1.4426100642     0.0028156111     3.5397365623
   10      C      -0.6659386828     0.0079603302     4.6713030530
   11      H       0.4163316130     0.0101364321     4.6229295686
   12      C      -2.8432994655     0.0005518061     3.6792592710
   13      C      -3.4976550634     0.0031048068     4.9084116493
   14      C      -3.4887304721    -0.0041907352     2.4241442904
   15      C      -4.8604032747    -0.0072939022     2.4090828511
   16      H      -5.4204367369    -0.0116258729     1.4826184953
   17      C      -1.3051593458     0.0106236796     5.9313075243
   18      H      -0.6926618280     0.0149098137     6.8241425188
   19      C      -2.6744114974     0.0081147427     6.0606727998
   20      H      -3.1227939053     0.0105280486     7.0467848381
   21      C      -4.9114968652     0.0004637293     4.8590411056
   22      H      -5.4874008061     0.0021665319     5.7763719344
   23      C      -5.5532742083    -0.0045394326     3.6428218247
   24      H      -6.6355035783    -0.0066656235     3.6237780528
   25      B       1.3075670719     0.0064650218    -0.7901179280
   26      C       1.2975227164     0.0130393969    -2.3181717735
   27      C       2.5009665065     0.0199588137    -3.0534777285
   28      H       3.4575398117     0.0246615641    -2.5390469959
   29      C       2.4773283890     0.0181110967    -4.4230024995
   30      C       1.2402267857     0.0092069228    -5.1300245968
   31      C       0.0571803764     0.0040275505    -4.4247167733
   32      H      -0.8933016871    -0.0033002902    -4.9483786355
   33      C       0.0545510416     0.0055550703    -3.0150940532
   34      C       3.5658103353     0.0183700282    -5.3927113965
   35      C       4.9352753740     0.0246805288    -5.3129215932
   36      H       5.4531668353     0.0339088609    -4.3613507863
   37      C       2.9577672306     0.0073389710    -6.6622043143
   38      C       3.6673796301     0.0001345922    -7.8586663409
   39      C       1.5500308157     0.0019013238    -6.5596432953
   40      C       0.8222445731    -0.0109689745    -7.7217778254
   41      H      -0.2603526574    -0.0161595564    -7.7166116694
   42      C       5.6800593497     0.0179990304    -6.5130093784
   43      H       6.7611097925     0.0224267708    -6.4533761544
   44      C       5.0794990318     0.0058766901    -7.7508339287
   45      H       5.6906543526     0.0004222399    -8.6450724393
   46      C       1.5157275310    -0.0184758976    -8.9549288447
   47      H       0.9363811951    -0.0292032458    -9.8691131414
   48      C       2.8884418788    -0.0131093241    -9.0398973282
   49      H       3.3712401759    -0.0196534627   -10.0092763372
   50      B      -1.2733688875    -0.0107922363    -2.2357901545
   51      C       2.6615840855    -0.0022041076    -0.0134125237
   52      C       3.2810458149    -1.2454651759     0.3599347152
   53      C       4.4446143386    -1.2302064299     1.0791453196
   54      H       4.9143974201    -2.1623314214     1.3700900219
   55      C       5.0579946306    -0.0166977759     1.4586842291
   56      C       4.4655651727     1.2014485909     1.0920430931
   57      H       4.9437163987     2.1266922874     1.3882277655
   58      C       3.2979933343     1.2319121645     0.3715043869
   59      C       6.3181070862    -0.0508530234     2.2449116021
   60      H       6.7224175215     0.9415017615     2.4280881209
   61      H       7.0768446420    -0.6456221009     1.7317884742
   62      H       6.1494625513    -0.5352244448     3.2102049675
   63      C       2.6584308006     2.5184572576    -0.0163055616
   64      H       3.2417886009     3.3773476388     0.3104214124
   65      H       2.5284487996     2.5717940961    -1.0982965582
   66      H       1.6580979808     2.5902961121     0.4148599720
   67      C       2.6272962442    -2.5249838804    -0.0371591517
   68      H       3.2082628517    -3.3906937449     0.2764500190
   69      H       2.4905097807    -2.5678186057    -1.1183553227
   70      H       1.6312062754    -2.5966304606     0.4026158772
   71      C      -2.6476472052    -0.0463462531    -2.9973713133
   72      C      -3.2440603782    -1.2695586426    -3.3234620204
   73      C      -4.4559574382    -1.2910819837    -4.0046263929
   74      H      -4.9071614730    -2.2463830396    -4.2528892911
   75      C      -5.1006913639    -0.1186816112    -4.3743903917
   76      C      -4.5047687537     1.0933725778    -4.0402120153
   77      H      -4.9965846609     2.0207420388    -4.3169789922
   78      C      -3.2956795027     1.1423460532    -3.3610462011
   79      C      -6.3997146154    -0.1503945480    -5.1255992448
   80      H      -6.8004221626    -1.1616330106    -5.1906587235
   81      H      -7.1554013159     0.4741360227    -4.6467280231
   82      H      -6.2777995504     0.2190381081    -6.1458024055
   83      C      -2.6705974870     2.4625958078    -3.0081144975
   84      H      -3.2821781626     3.3023616945    -3.3382687899
   85      H      -1.6841271992     2.5681433557    -3.4647819733
   86      H      -2.5285962227     2.5564095197    -1.9292783598
   87      C      -2.5696333001    -2.5556661042    -2.9340881388
   88      H      -3.1440402492    -3.4264142231    -3.2508913041
   89      H      -2.4352569780    -2.6216504265    -1.8522356890
   90      H      -1.5753897434    -2.6333124938    -3.3795236474
 ----------------------------------------------------------------

   15   -1973.7099120981      5.57E-09 Convergence criterion met
 Total energy in the final basis set = -1973.70991210

         TDDFT/TDA Excitation Energies
 ---------------------------------------------------

 Excited state   1: excitation energy (eV) =    2.2380
 Total energy for state  1:                 -1973.62766572 au
    Multiplicity: Triplet
    Trans. Mom.:  0.0000 X   0.0000 Y   0.0000 Z
    Strength   :     0.0000000000
    D(167) --> V(  2) amplitude = -0.2487
    D(172) --> V(  1) amplitude =  0.9181

 Excited state   2: excitation energy (eV) =    2.4429
 Total energy for state  2:                 -1973.62013849 au
    Multiplicity: Triplet
    Trans. Mom.:  0.0000 X   0.0000 Y   0.0000 Z
    Strength   :     0.0000000000
    D(171) --> V(  2) amplitude =  0.4807
    D(173) --> V(  1) amplitude =  0.8035

 Excited state   3: excitation energy (eV) =    2.5039
 Total energy for state  3:                 -1973.61789519 au
    Multiplicity: Triplet
    Trans. Mom.:  0.0000 X   0.0000 Y   0.0000 Z
    Strength   :     0.0000000000
    D(171) --> V(  1) amplitude =  0.7392
    D(171) --> V(  4) amplitude = -0.2383
    D(173) --> V(  2) amplitude =  0.5529

 Excited state   4: excitation energy (eV) =    2.7369
 Total energy for state  4:                 -1973.60933451 au
    Multiplicity: Triplet
    Trans. Mom.:  0.0000 X   0.0000 Y   0.0000 Z
    Strength   :     0.0000000000
    D(167) --> V(  1) amplitude = -0.7110
    D(172) --> V(  2) amplitude =  0.5595

 Excited state   5: excitation energy (eV) =    2.8111
 Total energy for state  5:                 -1973.60660520 au
    Multiplicity: Triplet
    Trans. Mom.:  0.0000 X   0.0000 Y   0.0000 Z
    Strength   :     0.0000000000
    D(174) --> V(  1) amplitude =  0.9522

 Excited state   6: excitation energy (eV) =    2.8661
 Total energy for state  6:                 -1973.60458470 au
    Multiplicity: Singlet
    Trans. Mom.: -0.0169 X  -0.0061 Y   0.0488 Z
    Strength   :     0.0001895534
    D(174) --> V(  1) amplitude =  0.9671

 Excited state   7: excitation energy (eV) =    2.9059
 Total energy for state  7:                 -1973.60312215 au
    Multiplicity: Singlet
    Trans. Mom.:  0.0216 X  -0.0016 Y  -0.0502 Z
    Strength   :     0.0002125492
    D(172) --> V(  1) amplitude =  0.9668

 Excited state   8: excitation energy (eV) =    3.1435
 Total energy for state  8:                 -1973.59438974 au
    Multiplicity: Triplet
    Trans. Mom.:  0.0000 X   0.0000 Y   0.0000 Z
    Strength   :     0.0000000000
    D(170) --> V(  1) amplitude =  0.9497

 Excited state   9: excitation energy (eV) =    3.1510
 Total energy for state  9:                 -1973.59411455 au
    Multiplicity: Singlet
    Trans. Mom.: -2.0193 X   0.0011 Y   3.5849 Z
    Strength   :     1.3069208757
    D(173) --> V(  1) amplitude =  0.9539

 Excited state  10: excitation energy (eV) =    3.1918
 Total energy for state 10:                 -1973.59261628 au
    Multiplicity: Singlet
    Trans. Mom.: -0.1453 X  -0.0021 Y   0.2966 Z
    Strength   :     0.0085284150
    D(170) --> V(  1) amplitude =  0.9637

 Excited state  11: excitation energy (eV) =    3.4647
 Total energy for state 11:                 -1973.58258505 au
    Multiplicity: Singlet
    Trans. Mom.:  0.0464 X   0.0043 Y   0.0067 Z
    Strength   :     0.0001882323
    D(171) --> V(  1) amplitude =  0.9378

 Excited state  12: excitation energy (eV) =    3.6299
 Total energy for state 12:                 -1973.57651707 au
    Multiplicity: Singlet
    Trans. Mom.:  0.0349 X   0.0035 Y  -0.0569 Z
    Strength   :     0.0003969288
    D(169) --> V(  1) amplitude =  0.9865

 ---------------------------------------------------

                    Orbital Energies (a.u.)
 --------------------------------------------------------------

 Alpha MOs
 -- Occupied --
-10.466 -10.465 -10.465 -10.465 -10.465 -10.465 -10.464 -10.464
-10.463 -10.463 -10.463 -10.463 -10.462 -10.462 -10.461 -10.461
-10.461 -10.461 -10.458 -10.458 -10.458 -10.458 -10.455 -10.454
-10.454 -10.453 -10.449 -10.449 -10.449 -10.448 -10.448 -10.448
-10.448 -10.447 -10.435 -10.435 -10.434 -10.434 -10.430 -10.430
-10.430 -10.429 -10.427 -10.425 -10.425 -10.424 -10.423 -10.423
-10.422 -10.418  -6.946  -6.940  -1.016  -1.016  -0.963  -0.959
 -0.956  -0.950  -0.934  -0.933  -0.909  -0.899  -0.872  -0.871
 -0.868  -0.867  -0.855  -0.854  -0.847  -0.846  -0.824  -0.814
 -0.812  -0.804  -0.779  -0.779  -0.759  -0.757  -0.757  -0.751
 -0.735  -0.727  -0.727  -0.721  -0.689  -0.682  -0.680  -0.666
 -0.651  -0.646  -0.639  -0.638  -0.636  -0.632  -0.595  -0.592
 -0.591  -0.588  -0.583  -0.576  -0.575  -0.552  -0.545  -0.543
 -0.540  -0.539  -0.527  -0.526  -0.520  -0.507  -0.504  -0.497
 -0.496  -0.495  -0.491  -0.486  -0.486  -0.485  -0.480  -0.480
 -0.479  -0.478  -0.475  -0.467  -0.466  -0.464  -0.464  -0.463
 -0.463  -0.459  -0.458  -0.455  -0.452  -0.449  -0.448  -0.444
 -0.444  -0.441  -0.431  -0.431  -0.426  -0.424  -0.413  -0.411
 -0.410  -0.402  -0.398  -0.396  -0.396  -0.393  -0.392  -0.388
 -0.381  -0.380  -0.379  -0.375  -0.375  -0.367  -0.354  -0.351
 -0.349  -0.336  -0.321  -0.315  -0.296  -0.295  -0.282  -0.276
 -0.273  -0.264  -0.262  -0.257  -0.256  -0.253

          Ground-State Mulliken Net Atomic Charges

     Atom                 Charge (a.u.)
  ----------------------------------------
      1 C                    -0.152511
      2 C                    -0.387382
      3 H                     0.242441
      4 C                     0.079729
      5 C                    -0.151281
      6 C                    -0.402849
      7 H                     0.242333
      8 C                     0.109553
      9 C                     0.189995
     10 C                    -0.384211
     11 H                     0.239652
     12 C                    -0.069433
     13 C                     0.233598
     14 C                     0.188695
     15 C                    -0.392301
     16 H                     0.239909
     17 C                    -0.221652
     18 H                     0.244876
     19 C                    -0.340083
     20 H                     0.240214
     21 C                    -0.343929
     22 H                     0.240792
     23 C                    -0.219698
     24 H                     0.244059
     25 B                     0.683548
     26 C                    -0.153476
     27 C                    -0.388935
     28 H                     0.241155
     29 C                     0.080200
     30 C                     0.110275
     31 C                    -0.402820
     32 H                     0.241791
     33 C                    -0.151192
     34 C                     0.189258
     35 C                    -0.383386
     36 H                     0.239824
     37 C                    -0.068389
     38 C                     0.235270
     39 C                     0.186531
     40 C                    -0.391661
     41 H                     0.239864
     42 C                    -0.222008
     43 H                     0.244896
     44 C                    -0.340946
     45 H                     0.240272
     46 C                    -0.219692
     47 H                     0.244177
     48 C                    -0.344302
     49 H                     0.240754
     50 B                     0.696419
     51 C                    -0.247254
     52 C                     0.067381
     53 C                    -0.348666
     54 H                     0.212625
     55 C                     0.105538
     56 C                    -0.355347
     57 H                     0.214108
     58 C                     0.066049
     59 C                    -0.717832
     60 H                     0.233828
     61 H                     0.233958
     62 H                     0.234275
     63 C                    -0.765024
     64 H                     0.242881
     65 H                     0.246689
     66 H                     0.246510
     67 C                    -0.764798
     68 H                     0.242913
     69 H                     0.246916
     70 H                     0.246733
     71 C                    -0.223069
     72 C                     0.054196
     73 C                    -0.360520
     74 H                     0.213299
     75 C                     0.117980
     76 C                    -0.352399
     77 H                     0.212498
     78 C                     0.056652
     79 C                    -0.716975
     80 H                     0.232960
     81 H                     0.233912
     82 H                     0.236180
     83 C                    -0.766982
     84 H                     0.243468
     85 H                     0.245798
     86 H                     0.245777
     87 C                    -0.768150
     88 H                     0.243884
     89 H                     0.246109
     90 H                     0.245959
  ----------------------------------------
  Sum of atomic charges =    -0.000000

                    Cartesian Multipole Moments
 -----------------------------------------------------------------
    Charge (ESU x 10^10)
                -0.0000
    Dipole Moment (Debye)
         X      -0.0007      Y      -0.0370      Z       0.0085
       Tot       0.0380
    Quadrupole Moments (Debye-Ang)
        XX    -255.3094     XY      -0.4983     YY    -301.8885
        XZ      -7.4930     YZ      -0.0633     ZZ    -244.5220

 Total job time:  8301.99s(wall), 27663.05s(cpu)
        *  Thank you very much for using Q-Chem.  Have a nice day.  *
