 Q-Chem 5.1, Q-Chem, Inc., Pleasanton, CA (2018)
 Q-Chem 5.1.1 for Intel X86 EM64T Linux

User input:
--------------------------------------------------------------
$solvent
dielectric      35.7
dielectric_infi 1.81
$end

$rem
threads 8
jobtype	sp
method PBEh-3c
basis def2-mSVP
mem_static	1024
mem_total	14000
sym_ignore	true
cis_n_roots             6
cis_singlets            false
cis_triplets		true
rpa                     false
calc_soc 		true
cis_moments             true
cis_relaxed_density	true
solvent_method		pcm
$end

$pcm
StateSpecific   5
ChargeSeparation Excited
$end

$molecule
read tCTopt.mol
$end

--------------------------------------------------------------

   14   -1973.7225041109      6.21e-09  Convergence criterion met
 Total energy in the final basis set =    -1973.7225041109
 Total job time:  5938.57s(wall), 26740.88s(cpu)
        *  Thank you very much for using Q-Chem.  Have a nice day.  *
 Q-Chem 5.1, Q-Chem, Inc., Pleasanton, CA (2018)
 Q-Chem 5.1.1 for Intel X86 EM64T Linux

User input:
--------------------------------------------------------------
$rem
threads 8
jobtype sp
method PBEh-3c
basis def2-mSVP
mem_static      1024
mem_total       14000
sym_ignore      true
cis_n_roots             6
cis_singlets            true
cis_triplets            true
rpa                     false
calc_soc                true
cis_moments             true
cis_relaxed_density     true
solvent_method          pcm
$end

$molecule
read
$end

$pcm
statespecific           Marcus
$end

$solvent
dielectric      35.7
dielectric_infi 1.81
$end

--------------------------------------------------------------

             Standard Nuclear Orientation (Angstroms)
    I     Atom           X                Y                Z
 ----------------------------------------------------------------
    1      C       0.0000000000     0.0000000000     0.0000000000
    2      C       0.0000000000     0.0000000000     1.4038180000
    3      H       0.9486425282     0.0000000000     1.9309856118
    4      C      -1.1790940021    -0.0002160391     2.1063382580
    5      C      -1.2466383946     0.0013577398    -0.6898305022
    6      C      -2.4538357648     0.0026725235     0.0509603536
    7      H      -3.4107347503     0.0051261189    -0.4623090231
    8      C      -2.4298751666     0.0015127092     1.4235737493
    9      C      -1.4346870837    -0.0027181712     3.5398443519
   10      C      -0.6510292301    -0.0057963518     4.6670930415
   11      H       0.4305554067    -0.0065402813     4.6103179650
   12      C      -2.8351519006    -0.0021008547     3.6889677016
   13      C      -3.4820983180    -0.0041183296     4.9220560775
   14      C      -3.4887833492     0.0009405772     2.4390823747
   15      C      -4.8602133228     0.0027973064     2.4321009960
   16      H      -5.4276200127     0.0058144187     1.5097846328
   17      C      -1.2840345824    -0.0081543485     5.9306279730
   18      H      -0.6650621095    -0.0107777412     6.8189611320
   19      C      -2.6521457158    -0.0071891361     6.0702248615
   20      H      -3.0944900345    -0.0091184767     7.0589505723
   21      C      -4.8955422672    -0.0027070946     4.8805138804
   22      H      -5.4657295547    -0.0040227929     5.8015306875
   23      C      -5.5466644075     0.0006615970     3.6690288397
   24      H      -6.6290451733     0.0019082943     3.6577737469
   25      B      -1.2374780187    -0.0005559454    -2.2200388872
   26      C       0.0690222204     0.0021605163    -3.0151410932
   27      C       0.0856646315     0.0097245433    -4.4316181349
   28      H      -0.8467273953     0.0121569867    -4.9884807825
   29      C       1.2766631222     0.0166676176    -5.1162000959
   30      C       2.5038538265     0.0123703096    -4.3920424378
   31      C       2.5056775232     0.0030616260    -3.0188692000
   32      H       3.4438416827     0.0000456449    -2.4732086899
   33      C       1.3013864771    -0.0008937785    -2.2979095280
   34      C       3.6030396607     0.0224082808    -5.3444191803
   35      C       4.9715280142     0.0240777743    -5.2436832680
   36      H       5.4728704327     0.0151500979    -4.2836204169
   37      C       3.0152930723     0.0343333738    -6.6243276449
   38      C       3.7432269931     0.0493448481    -7.8096763855
   39      C       1.6070353045     0.0310919542    -6.5446982930
   40      C       0.8970540485     0.0434001718    -7.7174410777
   41      H      -0.1857647927     0.0422476846    -7.7307303490
   42      C       5.7336077564     0.0386167985    -6.4332536881
   43      H       6.8134835726     0.0402459654    -6.3557182324
   44      C       5.1541781133     0.0511595624    -7.6808923303
   45      H       5.7789709238     0.0626707754    -8.5655039562
   46      C       2.9822449572     0.0617676803    -9.0016904393
   47      H       3.4800928017     0.0740019939    -9.9634807681
   48      C       1.6080780075     0.0588205022    -8.9400701351
   49      H       1.0439528994     0.0689767896    -9.8637828299
   50      B       1.3351234189    -0.0049898145    -0.7608192521
   51      C      -2.5980768628    -0.0111918663    -2.9734850203
   52      C      -3.2413554799     1.2213018991    -3.3366171739
   53      C      -4.4213295542     1.1829241153    -4.0262839004
   54      H      -4.9130656130     2.1041765959    -4.3149825620
   55      C      -5.0245915718    -0.0460171904    -4.3777824958
   56      C      -4.4092235530    -1.2536807873    -4.0118646105
   57      H      -4.8845752880    -2.1876860495    -4.2839750950
   58      C      -3.2250230506    -1.2609025017    -3.3199271914
   59      C      -6.3055620590    -0.0406300614    -5.1289450950
   60      H      -6.6753736533    -1.0430731054    -5.3289315786
   61      H      -7.0719449956     0.5065728283    -4.5751820315
   62      H      -6.1854599225     0.4793331637    -6.0824536692
   63      C      -2.5576746905    -2.5294697992    -2.9174153124
   64      H      -3.1217542975    -3.4052416979    -3.2328380780
   65      H      -2.4283400399    -2.5653619358    -1.8341742827
   66      H      -1.5542007413    -2.5850954625    -3.3436245036
   67      C      -2.5903845371     2.5058978484    -2.9516834659
   68      H      -3.1709088633     3.3685364757    -3.2738031376
   69      H      -2.4566981767     2.5573700365    -1.8700081794
   70      H      -1.5918281978     2.5739075735    -3.3864940997
   71      C       2.7022137971    -0.0159994723     0.0285319693
   72      C       3.3235410249     1.1811167202     0.4038223872
   73      C       4.5149710579     1.1559860371     1.1217945370
   74      H       4.9815491085     2.0936970482     1.4061106652
   75      C       5.1193246643    -0.0393410921     1.4841828010
   76      C       4.4970862269    -1.2250941697     1.1107512755
   77      H       4.9505171543    -2.1720783442     1.3873698941
   78      C       3.3084382292    -1.2275704476     0.3940083437
   79      C       6.4123427833    -0.0628753899     2.2469923185
   80      H       6.7118159990     0.9366280506     2.5609431988
   81      H       6.3383257104    -0.6813881819     3.1430143257
   82      H       7.2237406040    -0.4725082639     1.6419594197
   83      C       2.6950901377     2.4962155890     0.0395119002
   84      H       3.3038255027     3.3393089927     0.3668714378
   85      H       2.5562994453     2.5842306472    -1.0398206606
   86      H       1.7082466005     2.6020973066     0.4951173853
   87      C       2.6624978920    -2.5311705858     0.0173829382
   88      H       3.2579832535    -3.3852402542     0.3409313378
   89      H       2.5266877043    -2.6103092186    -1.0630509462
   90      H       1.6724552947    -2.6271428329     0.4684410257
 ----------------------------------------------------------------

   15   -1973.7131039728      4.82e-09  Convergence criterion met
 Total energy in the final basis set =    -1973.7131039728

         TDDFT/TDA Excitation Energies
 ---------------------------------------------------

 Excited state   1: excitation energy (eV) =    2.2416
 Total energy for state  1:                 -1973.63072722 au
    Multiplicity: Triplet
    Trans. Mom.:  0.0000 X   0.0000 Y   0.0000 Z
    Strength   :     0.0000000000
    D(174) --> V(  1) amplitude =  0.9683

 Excited state   2: excitation energy (eV) =    2.2795
 Total energy for state  2:                 -1973.62933474 au
    Multiplicity: Triplet
    Trans. Mom.:  0.0000 X   0.0000 Y   0.0000 Z
    Strength   :     0.0000000000
    D(167) --> V(  2) amplitude = -0.2458
    D(171) --> V(  1) amplitude =  0.8440
    D(172) --> V(  1) amplitude =  0.2950

 Excited state   3: excitation energy (eV) =    2.2800
 Total energy for state  3:                 -1973.62931472 au
    Multiplicity: Singlet
    Trans. Mom.: -0.0105 X   0.0029 Y   0.0046 Z
    Strength   :     0.0000078091
    D(174) --> V(  1) amplitude =  0.9741

 Excited state   4: excitation energy (eV) =    2.4570
 Total energy for state  4:                 -1973.62281147 au
    Multiplicity: Triplet
    Trans. Mom.:  0.0000 X   0.0000 Y   0.0000 Z
    Strength   :     0.0000000000
    D(170) --> V(  2) amplitude =  0.4783
    D(171) --> V(  1) amplitude = -0.3092
    D(172) --> V(  1) amplitude =  0.7365

 Excited state   5: excitation energy (eV) =    2.5100
 Total energy for state  5:                 -1973.62086262 au
    Multiplicity: Triplet
    Trans. Mom.:  0.0000 X   0.0000 Y   0.0000 Z
    Strength   :     0.0000000000
    D(170) --> V(  1) amplitude =  0.7392
    D(170) --> V(  4) amplitude =  0.2233
    D(172) --> V(  2) amplitude =  0.5431

 Excited state   6: excitation energy (eV) =    2.7741
 Total energy for state  6:                 -1973.61115685 au
    Multiplicity: Triplet
    Trans. Mom.:  0.0000 X   0.0000 Y   0.0000 Z
    Strength   :     0.0000000000
    D(167) --> V(  1) amplitude = -0.7023
    D(171) --> V(  2) amplitude =  0.5515

 Excited state   7: excitation energy (eV) =    2.9536
 Total energy for state  7:                 -1973.60456222 au
    Multiplicity: Singlet
    Trans. Mom.: -0.1491 X  -0.0002 Y   0.2565 Z
    Strength   :     0.0063685792
    D(171) --> V(  1) amplitude =  0.8553
    D(172) --> V(  1) amplitude =  0.2338
    D(173) --> V(  1) amplitude = -0.3898

 Excited state   8: excitation energy (eV) =    3.0662
 Total energy for state  8:                 -1973.60042395 au
    Multiplicity: Triplet
    Trans. Mom.:  0.0000 X   0.0000 Y   0.0000 Z
    Strength   :     0.0000000000
    D(173) --> V(  1) amplitude =  0.9592

 Excited state   9: excitation energy (eV) =    3.0821
 Total energy for state  9:                 -1973.59984029 au
    Multiplicity: Singlet
    Trans. Mom.:  0.2316 X   0.0002 Y  -0.3927 Z
    Strength   :     0.0156938732
    D(171) --> V(  1) amplitude =  0.3692
    D(173) --> V(  1) amplitude =  0.9069

 Excited state  10: excitation energy (eV) =    3.1765
 Total energy for state 10:                 -1973.59637005 au
    Multiplicity: Singlet
    Trans. Mom.: -1.9870 X  -0.0145 Y   3.4978 Z
    Strength   :     1.2594043304
    D(171) --> V(  1) amplitude = -0.2567
    D(172) --> V(  1) amplitude =  0.9205

 Excited state  11: excitation energy (eV) =    3.2842
 Total energy for state 11:                 -1973.59241155 au
    Multiplicity: Singlet
    Trans. Mom.:  0.0223 X  -0.0051 Y  -0.0377 Z
    Strength   :     0.0001569110
    D(169) --> V(  1) amplitude = -0.9651

 Excited state  12: excitation energy (eV) =    3.4784
 Total energy for state 12:                 -1973.58527641 au
    Multiplicity: Singlet
    Trans. Mom.:  0.1520 X   0.0146 Y   0.0481 Z
    Strength   :     0.0021840850
    D(170) --> V(  1) amplitude =  0.9384

 ---------------------------------------------------

                    Orbital Energies (a.u.)
 --------------------------------------------------------------

 Alpha MOs
 -- Occupied --
-10.475 -10.475 -10.474 -10.473 -10.473 -10.473 -10.473 -10.473
-10.471 -10.471 -10.471 -10.470 -10.470 -10.470 -10.469 -10.469
-10.468 -10.467 -10.466 -10.465 -10.464 -10.464 -10.463 -10.463
-10.463 -10.462 -10.461 -10.461 -10.459 -10.458 -10.458 -10.445
-10.444 -10.444 -10.443 -10.442 -10.441 -10.435 -10.435 -10.435
-10.435 -10.433 -10.432 -10.431 -10.414 -10.413 -10.412 -10.412
-10.409 -10.400  -6.957  -6.943  -1.026  -1.025  -0.972  -0.968
 -0.967  -0.942  -0.941  -0.936  -0.917  -0.908  -0.881  -0.880
 -0.865  -0.864  -0.859  -0.855  -0.854  -0.849  -0.832  -0.821
 -0.820  -0.813  -0.789  -0.768  -0.768  -0.764  -0.746  -0.745
 -0.741  -0.734  -0.729  -0.729  -0.697  -0.688  -0.687  -0.675
 -0.657  -0.653  -0.649  -0.648  -0.626  -0.618  -0.603  -0.597
 -0.597  -0.592  -0.590  -0.583  -0.582  -0.559  -0.551  -0.551
 -0.542  -0.534  -0.532  -0.525  -0.523  -0.515  -0.511  -0.505
 -0.502  -0.500  -0.496  -0.496  -0.496  -0.490  -0.489  -0.488
 -0.484  -0.475  -0.474  -0.473  -0.472  -0.469  -0.467  -0.465
 -0.460  -0.458  -0.455  -0.453  -0.451  -0.447  -0.446  -0.442
 -0.441  -0.440  -0.439  -0.434  -0.431  -0.426  -0.421  -0.416
 -0.405  -0.405  -0.405  -0.402  -0.400  -0.399  -0.394  -0.392
 -0.390  -0.389  -0.387  -0.379  -0.365  -0.361  -0.359  -0.358
 -0.353  -0.335  -0.330  -0.325  -0.305  -0.304  -0.293  -0.286
 -0.277  -0.271  -0.268  -0.265  -0.261  -0.238

          Ground-State Mulliken Net Atomic Charges

     Atom                 Charge (a.u.)
  ----------------------------------------
      1 C                    -0.153272
      2 C                    -0.401085
      3 H                     0.245333
      4 C                     0.069382
      5 C                    -0.158410
      6 C                    -0.400199
      7 H                     0.272495
      8 C                     0.092125
      9 C                     0.171672
     10 C                    -0.394463
     11 H                     0.255422
     12 C                    -0.074285
     13 C                     0.214276
     14 C                     0.178608
     15 C                    -0.400143
     16 H                     0.268647
     17 C                    -0.240078
     18 H                     0.264156
     19 C                    -0.349172
     20 H                     0.262467
     21 C                    -0.353935
     22 H                     0.262830
     23 C                    -0.236117
     24 H                     0.267466
     25 B                     0.680234
     26 C                    -0.157593
     27 C                    -0.401073
     28 H                     0.272002
     29 C                     0.092817
     30 C                     0.070333
     31 C                    -0.402739
     32 H                     0.244788
     33 C                    -0.152662
     34 C                     0.170735
     35 C                    -0.393547
     36 H                     0.255731
     37 C                    -0.073313
     38 C                     0.216064
     39 C                     0.176513
     40 C                    -0.399468
     41 H                     0.268698
     42 C                    -0.240480
     43 H                     0.264132
     44 C                    -0.349896
     45 H                     0.262533
     46 C                    -0.354400
     47 H                     0.262788
     48 C                    -0.236170
     49 H                     0.267639
     50 B                     0.668111
     51 C                    -0.255113
     52 C                     0.075197
     53 C                    -0.351909
     54 H                     0.233966
     55 C                     0.105649
     56 C                    -0.362564
     57 H                     0.236080
     58 C                     0.071947
     59 C                    -0.722462
     60 H                     0.240974
     61 H                     0.241782
     62 H                     0.241685
     63 C                    -0.773646
     64 H                     0.260871
     65 H                     0.237690
     66 H                     0.237655
     67 C                    -0.772769
     68 H                     0.260498
     69 H                     0.237146
     70 H                     0.237159
     71 C                    -0.222473
     72 C                     0.043761
     73 C                    -0.374281
     74 H                     0.232980
     75 C                     0.104395
     76 C                    -0.364256
     77 H                     0.231581
     78 C                     0.042984
     79 C                    -0.724408
     80 H                     0.241726
     81 H                     0.241383
     82 H                     0.242993
     83 C                    -0.771294
     84 H                     0.256309
     85 H                     0.244371
     86 H                     0.244516
     87 C                    -0.771054
     88 H                     0.256280
     89 H                     0.244530
     90 H                     0.244627
  ----------------------------------------
  Sum of atomic charges =    -0.000000

                    Cartesian Multipole Moments
 -----------------------------------------------------------------
    Charge (ESU x 10^10)
                -0.0000
    Dipole Moment (Debye)
         X      -1.9216      Y       0.0263      Z      -1.1122
       Tot       2.2204
    Quadrupole Moments (Debye-Ang)
        XX    -239.3893     XY      -0.6523     YY    -300.7382
        XZ      -1.6031     YZ      -0.9881     ZZ    -229.7178

 Total job time:  10358.00s(wall), 47189.74s(cpu)
        *  Thank you very much for using Q-Chem.  Have a nice day.  *
