 Q-Chem 5.1, Q-Chem, Inc., Pleasanton, CA (2018)
 Q-Chem 5.1.1 for Intel X86 EM64T Linux

User input:
--------------------------------------------------------------
$solvent
dielectric      2.38
dielectric_infi 2.25
$end

$rem
threads 8
jobtype	sp
method PBEh-3c
basis def2-mSVP
mem_static	1024
mem_total	14000
sym_ignore	true
cis_n_roots             6
cis_singlets            false
cis_triplets		true
rpa                     false
calc_soc 		true
cis_moments             true
cis_relaxed_density	true
solvent_method		pcm
$end

$pcm
StateSpecific   5
ChargeSeparation Excited
$end

$molecule
read tCTopt.mol
$end

--------------------------------------------------------------

   14   -1973.7108534872      9.56e-09  Convergence criterion met
 Total energy in the final basis set =    -1973.7108534872
 Total job time:  6315.73s(wall), 22940.82s(cpu)
        *  Thank you very much for using Q-Chem.  Have a nice day.  *
 Q-Chem 5.1, Q-Chem, Inc., Pleasanton, CA (2018)
 Q-Chem 5.1.1 for Intel X86 EM64T Linux

User input:
--------------------------------------------------------------
$rem
threads 8
jobtype sp
method PBEh-3c
basis def2-mSVP
mem_static      1024
mem_total       14000
sym_ignore      true
cis_n_roots             6
cis_singlets            true
cis_triplets            true
rpa                     false
calc_soc                true
cis_moments             true
cis_relaxed_density     true
solvent_method          pcm
$end

$molecule
read
$end

$pcm
statespecific           Marcus
$end

$solvent
dielectric      2.38
dielectric_infi 2.25
$end

--------------------------------------------------------------

             Standard Nuclear Orientation (Angstroms)
    I     Atom           X                Y                Z
 ----------------------------------------------------------------
    1      C       0.0000000000     0.0000000000     0.0000000000
    2      C       0.0000000000     0.0000000000     1.4038180000
    3      H       0.9486425282     0.0000000000     1.9309856118
    4      C      -1.1790940021    -0.0002160391     2.1063382580
    5      C      -1.2466383946     0.0013577398    -0.6898305022
    6      C      -2.4538357648     0.0026725235     0.0509603536
    7      H      -3.4107347503     0.0051261189    -0.4623090231
    8      C      -2.4298751666     0.0015127092     1.4235737493
    9      C      -1.4346870837    -0.0027181712     3.5398443519
   10      C      -0.6510292301    -0.0057963518     4.6670930415
   11      H       0.4305554067    -0.0065402813     4.6103179650
   12      C      -2.8351519006    -0.0021008547     3.6889677016
   13      C      -3.4820983180    -0.0041183296     4.9220560775
   14      C      -3.4887833492     0.0009405772     2.4390823747
   15      C      -4.8602133228     0.0027973064     2.4321009960
   16      H      -5.4276200127     0.0058144187     1.5097846328
   17      C      -1.2840345824    -0.0081543485     5.9306279730
   18      H      -0.6650621095    -0.0107777412     6.8189611320
   19      C      -2.6521457158    -0.0071891361     6.0702248615
   20      H      -3.0944900345    -0.0091184767     7.0589505723
   21      C      -4.8955422672    -0.0027070946     4.8805138804
   22      H      -5.4657295547    -0.0040227929     5.8015306875
   23      C      -5.5466644075     0.0006615970     3.6690288397
   24      H      -6.6290451733     0.0019082943     3.6577737469
   25      B      -1.2374780187    -0.0005559454    -2.2200388872
   26      C       0.0690222204     0.0021605163    -3.0151410932
   27      C       0.0856646315     0.0097245433    -4.4316181349
   28      H      -0.8467273953     0.0121569867    -4.9884807825
   29      C       1.2766631222     0.0166676176    -5.1162000959
   30      C       2.5038538265     0.0123703096    -4.3920424378
   31      C       2.5056775232     0.0030616260    -3.0188692000
   32      H       3.4438416827     0.0000456449    -2.4732086899
   33      C       1.3013864771    -0.0008937785    -2.2979095280
   34      C       3.6030396607     0.0224082808    -5.3444191803
   35      C       4.9715280142     0.0240777743    -5.2436832680
   36      H       5.4728704327     0.0151500979    -4.2836204169
   37      C       3.0152930723     0.0343333738    -6.6243276449
   38      C       3.7432269931     0.0493448481    -7.8096763855
   39      C       1.6070353045     0.0310919542    -6.5446982930
   40      C       0.8970540485     0.0434001718    -7.7174410777
   41      H      -0.1857647927     0.0422476846    -7.7307303490
   42      C       5.7336077564     0.0386167985    -6.4332536881
   43      H       6.8134835726     0.0402459654    -6.3557182324
   44      C       5.1541781133     0.0511595624    -7.6808923303
   45      H       5.7789709238     0.0626707754    -8.5655039562
   46      C       2.9822449572     0.0617676803    -9.0016904393
   47      H       3.4800928017     0.0740019939    -9.9634807681
   48      C       1.6080780075     0.0588205022    -8.9400701351
   49      H       1.0439528994     0.0689767896    -9.8637828299
   50      B       1.3351234189    -0.0049898145    -0.7608192521
   51      C      -2.5980768628    -0.0111918663    -2.9734850203
   52      C      -3.2413554799     1.2213018991    -3.3366171739
   53      C      -4.4213295542     1.1829241153    -4.0262839004
   54      H      -4.9130656130     2.1041765959    -4.3149825620
   55      C      -5.0245915718    -0.0460171904    -4.3777824958
   56      C      -4.4092235530    -1.2536807873    -4.0118646105
   57      H      -4.8845752880    -2.1876860495    -4.2839750950
   58      C      -3.2250230506    -1.2609025017    -3.3199271914
   59      C      -6.3055620590    -0.0406300614    -5.1289450950
   60      H      -6.6753736533    -1.0430731054    -5.3289315786
   61      H      -7.0719449956     0.5065728283    -4.5751820315
   62      H      -6.1854599225     0.4793331637    -6.0824536692
   63      C      -2.5576746905    -2.5294697992    -2.9174153124
   64      H      -3.1217542975    -3.4052416979    -3.2328380780
   65      H      -2.4283400399    -2.5653619358    -1.8341742827
   66      H      -1.5542007413    -2.5850954625    -3.3436245036
   67      C      -2.5903845371     2.5058978484    -2.9516834659
   68      H      -3.1709088633     3.3685364757    -3.2738031376
   69      H      -2.4566981767     2.5573700365    -1.8700081794
   70      H      -1.5918281978     2.5739075735    -3.3864940997
   71      C       2.7022137971    -0.0159994723     0.0285319693
   72      C       3.3235410249     1.1811167202     0.4038223872
   73      C       4.5149710579     1.1559860371     1.1217945370
   74      H       4.9815491085     2.0936970482     1.4061106652
   75      C       5.1193246643    -0.0393410921     1.4841828010
   76      C       4.4970862269    -1.2250941697     1.1107512755
   77      H       4.9505171543    -2.1720783442     1.3873698941
   78      C       3.3084382292    -1.2275704476     0.3940083437
   79      C       6.4123427833    -0.0628753899     2.2469923185
   80      H       6.7118159990     0.9366280506     2.5609431988
   81      H       6.3383257104    -0.6813881819     3.1430143257
   82      H       7.2237406040    -0.4725082639     1.6419594197
   83      C       2.6950901377     2.4962155890     0.0395119002
   84      H       3.3038255027     3.3393089927     0.3668714378
   85      H       2.5562994453     2.5842306472    -1.0398206606
   86      H       1.7082466005     2.6020973066     0.4951173853
   87      C       2.6624978920    -2.5311705858     0.0173829382
   88      H       3.2579832535    -3.3852402542     0.3409313378
   89      H       2.5266877043    -2.6103092186    -1.0630509462
   90      H       1.6724552947    -2.6271428329     0.4684410257
 ----------------------------------------------------------------

   14   -1973.7104494929      9.65e-09  Convergence criterion met
 Total energy in the final basis set =    -1973.7104494929

         TDDFT/TDA Excitation Energies
 ---------------------------------------------------

 Excited state   1: excitation energy (eV) =    2.2340
 Total energy for state  1:                 -1973.62835326 au
    Multiplicity: Triplet
    Trans. Mom.:  0.0000 X   0.0000 Y   0.0000 Z
    Strength   :     0.0000000000
    D(167) --> V(  2) amplitude =  0.2437
    D(172) --> V(  1) amplitude =  0.7599
    D(173) --> V(  1) amplitude =  0.5151

 Excited state   2: excitation energy (eV) =    2.4456
 Total energy for state  2:                 -1973.62057485 au
    Multiplicity: Triplet
    Trans. Mom.:  0.0000 X   0.0000 Y   0.0000 Z
    Strength   :     0.0000000000
    D(171) --> V(  2) amplitude =  0.4759
    D(172) --> V(  1) amplitude = -0.4694
    D(173) --> V(  1) amplitude =  0.6552

 Excited state   3: excitation energy (eV) =    2.5007
 Total energy for state  3:                 -1973.61854974 au
    Multiplicity: Triplet
    Trans. Mom.:  0.0000 X   0.0000 Y   0.0000 Z
    Strength   :     0.0000000000
    D(171) --> V(  1) amplitude =  0.7394
    D(171) --> V(  4) amplitude =  0.2365
    D(173) --> V(  2) amplitude =  0.5145

 Excited state   4: excitation energy (eV) =    2.7401
 Total energy for state  4:                 -1973.60975369 au
    Multiplicity: Triplet
    Trans. Mom.:  0.0000 X   0.0000 Y   0.0000 Z
    Strength   :     0.0000000000
    D(167) --> V(  1) amplitude = -0.7087
    D(172) --> V(  2) amplitude = -0.5236

 Excited state   5: excitation energy (eV) =    2.7659
 Total energy for state  5:                 -1973.60880351 au
    Multiplicity: Triplet
    Trans. Mom.:  0.0000 X   0.0000 Y   0.0000 Z
    Strength   :     0.0000000000
    D(174) --> V(  1) amplitude =  0.9561

 Excited state   6: excitation energy (eV) =    2.8189
 Total energy for state  6:                 -1973.60685573 au
    Multiplicity: Singlet
    Trans. Mom.: -0.0169 X   0.0033 Y   0.0158 Z
    Strength   :     0.0000377005
    D(174) --> V(  1) amplitude =  0.9691

 Excited state   7: excitation energy (eV) =    2.9024
 Total energy for state  7:                 -1973.60378873 au
    Multiplicity: Singlet
    Trans. Mom.:  0.2146 X   0.0011 Y  -0.3720 Z
    Strength   :     0.0131164204
    D(172) --> V(  1) amplitude =  0.8180
    D(173) --> V(  1) amplitude =  0.5181

 Excited state   8: excitation energy (eV) =    3.1427
 Total energy for state  8:                 -1973.59495638 au
    Multiplicity: Singlet
    Trans. Mom.:  2.0538 X   0.0154 Y  -3.6135 Z
    Strength   :     1.3301631471
    D(172) --> V(  1) amplitude = -0.5115
    D(173) --> V(  1) amplitude =  0.8080

 Excited state   9: excitation energy (eV) =    3.1611
 Total energy for state  9:                 -1973.59428263 au
    Multiplicity: Triplet
    Trans. Mom.:  0.0000 X   0.0000 Y   0.0000 Z
    Strength   :     0.0000000000
    D(170) --> V(  1) amplitude =  0.9513

 Excited state  10: excitation energy (eV) =    3.2109
 Total energy for state 10:                 -1973.59245128 au
    Multiplicity: Singlet
    Trans. Mom.:  0.0420 X  -0.0053 Y  -0.0734 Z
    Strength   :     0.0005646701
    D(170) --> V(  1) amplitude =  0.9667

 Excited state  11: excitation energy (eV) =    3.4534
 Total energy for state 11:                 -1973.58354078 au
    Multiplicity: Singlet
    Trans. Mom.: -0.1725 X  -0.0153 Y  -0.0724 Z
    Strength   :     0.0029818389
    D(171) --> V(  1) amplitude =  0.9377

 Excited state  12: excitation energy (eV) =    3.6305
 Total energy for state 12:                 -1973.57702988 au
    Multiplicity: Singlet
    Trans. Mom.:  0.0763 X  -0.0002 Y  -0.0311 Z
    Strength   :     0.0006039096
    D(169) --> V(  1) amplitude =  0.9865

 ---------------------------------------------------

                    Orbital Energies (a.u.)
 --------------------------------------------------------------

 Alpha MOs
 -- Occupied --
-10.466 -10.466 -10.466 -10.466 -10.465 -10.465 -10.465 -10.465
-10.464 -10.464 -10.464 -10.464 -10.462 -10.462 -10.462 -10.462
-10.461 -10.461 -10.459 -10.459 -10.459 -10.459 -10.457 -10.456
-10.453 -10.453 -10.450 -10.450 -10.449 -10.449 -10.448 -10.448
-10.448 -10.448 -10.437 -10.436 -10.435 -10.435 -10.432 -10.431
-10.429 -10.429 -10.428 -10.425 -10.425 -10.424 -10.423 -10.423
-10.421 -10.420  -6.947  -6.940  -1.017  -1.017  -0.963  -0.960
 -0.957  -0.950  -0.934  -0.934  -0.909  -0.900  -0.872  -0.871
 -0.869  -0.866  -0.856  -0.855  -0.847  -0.847  -0.824  -0.814
 -0.812  -0.805  -0.780  -0.779  -0.759  -0.759  -0.757  -0.750
 -0.736  -0.727  -0.727  -0.721  -0.690  -0.682  -0.680  -0.667
 -0.652  -0.646  -0.640  -0.639  -0.636  -0.632  -0.596  -0.592
 -0.591  -0.588  -0.583  -0.576  -0.576  -0.552  -0.545  -0.544
 -0.541  -0.539  -0.528  -0.527  -0.520  -0.508  -0.504  -0.498
 -0.496  -0.495  -0.492  -0.487  -0.486  -0.486  -0.480  -0.480
 -0.479  -0.478  -0.475  -0.467  -0.466  -0.465  -0.464  -0.463
 -0.462  -0.459  -0.458  -0.455  -0.451  -0.450  -0.447  -0.445
 -0.444  -0.441  -0.432  -0.432  -0.427  -0.425  -0.414  -0.412
 -0.409  -0.402  -0.398  -0.397  -0.396  -0.394  -0.392  -0.389
 -0.382  -0.380  -0.380  -0.375  -0.374  -0.367  -0.355  -0.352
 -0.350  -0.336  -0.322  -0.316  -0.297  -0.296  -0.283  -0.276
 -0.274  -0.266  -0.263  -0.258  -0.256  -0.252

          Ground-State Mulliken Net Atomic Charges

     Atom                 Charge (a.u.)
  ----------------------------------------
      1 C                    -0.150329
      2 C                    -0.393544
      3 H                     0.243808
      4 C                     0.082345
      5 C                    -0.155502
      6 C                    -0.397076
      7 H                     0.243868
      8 C                     0.102684
      9 C                     0.184522
     10 C                    -0.384598
     11 H                     0.242525
     12 C                    -0.069785
     13 C                     0.231053
     14 C                     0.190911
     15 C                    -0.394109
     16 H                     0.242981
     17 C                    -0.224826
     18 H                     0.247470
     19 C                    -0.340648
     20 H                     0.243562
     21 C                    -0.345998
     22 H                     0.243803
     23 C                    -0.221579
     24 H                     0.247312
     25 B                     0.684373
     26 C                    -0.154522
     27 C                    -0.397393
     28 H                     0.243289
     29 C                     0.103301
     30 C                     0.083446
     31 C                    -0.394798
     32 H                     0.242837
     33 C                    -0.150013
     34 C                     0.183566
     35 C                    -0.383623
     36 H                     0.242649
     37 C                    -0.068822
     38 C                     0.232803
     39 C                     0.188891
     40 C                    -0.393424
     41 H                     0.243030
     42 C                    -0.225251
     43 H                     0.247447
     44 C                    -0.341347
     45 H                     0.243653
     46 C                    -0.346433
     47 H                     0.243776
     48 C                    -0.221604
     49 H                     0.247442
     50 B                     0.694249
     51 C                    -0.244321
     52 C                     0.069805
     53 C                    -0.351732
     54 H                     0.214979
     55 C                     0.103662
     56 C                    -0.359756
     57 H                     0.216755
     58 C                     0.065568
     59 C                    -0.718622
     60 H                     0.234785
     61 H                     0.234652
     62 H                     0.234621
     63 C                    -0.768056
     64 H                     0.245022
     65 H                     0.246990
     66 H                     0.246963
     67 C                    -0.767017
     68 H                     0.244618
     69 H                     0.246859
     70 H                     0.246815
     71 C                    -0.227139
     72 C                     0.053369
     73 C                    -0.360654
     74 H                     0.216186
     75 C                     0.116387
     76 C                    -0.352906
     77 H                     0.215472
     78 C                     0.053136
     79 C                    -0.718516
     80 H                     0.234305
     81 H                     0.235237
     82 H                     0.237277
     83 C                    -0.767161
     84 H                     0.245202
     85 H                     0.245752
     86 H                     0.245621
     87 C                    -0.767030
     88 H                     0.245110
     89 H                     0.245742
     90 H                     0.245648
  ----------------------------------------
  Sum of atomic charges =    -0.000000

                    Cartesian Multipole Moments
 -----------------------------------------------------------------
    Charge (ESU x 10^10)
                -0.0000
    Dipole Moment (Debye)
         X       0.2065      Y       0.0432      Z       0.0852
       Tot       0.2275
    Quadrupole Moments (Debye-Ang)
        XX    -253.4190     XY      -0.5460     YY    -301.7161
        XZ      -8.1703     YZ      -0.8873     ZZ    -243.5238

 Total job time:  12167.14s(wall), 37882.78s(cpu)
        *  Thank you very much for using Q-Chem.  Have a nice day.  *
