 Q-Chem 5.0, Q-Chem, Inc., Pleasanton, CA (2017)
 Q-Chem 5.0.1 for Intel X86 EM64T Linux

User input:
--------------------------------------------------------------
$solvent
dielectric      2.38
dielectric_infi 2.25
$end

$rem
threads 8
jobtype	sp
method PBEh-3c
basis def2-mSVP
mem_static	1024
mem_total	14000
sym_ignore	true
cis_n_roots             6
cis_singlets            false
cis_triplets		true
rpa                     false
calc_soc 		true
cis_moments             true
cis_relaxed_density	true
solvent_method		pcm
$end

$pcm
StateSpecific   5
ChargeSeparation Excited
$end

$molecule
read tCTopt.mol
$end

--------------------------------------------------------------

   15   -1973.7119422195      5.48E-09 Convergence criterion met
 Total energy in the final basis set = -1973.71194222
 Q-Chem 5.0, Q-Chem, Inc., Pleasanton, CA (2017)
 Q-Chem 5.0.1 for Intel X86 EM64T Linux

User input:
--------------------------------------------------------------
$rem
threads 8
jobtype sp
method PBEh-3c
basis def2-mSVP
mem_static      1024
mem_total       14000
sym_ignore      true
cis_n_roots             6
cis_singlets            true
cis_triplets            true
rpa                     false
calc_soc                true
cis_moments             true
cis_relaxed_density     true
solvent_method          pcm
$end

$molecule
read
$end

$pcm
statespecific           Marcus
$end

$solvent
dielectric      2.38
dielectric_infi 2.25
$end

--------------------------------------------------------------

             Standard Nuclear Orientation (Angstroms)
    I     Atom           X                Y                Z
 ----------------------------------------------------------------
    1      C       0.0000000000     0.0000000000     0.0000000000
    2      C       0.0000000000     0.0000000000     1.4102550000
    3      H       0.9360997242     0.0000000000     1.9608911666
    4      C      -1.1802910718    -0.0003792248     2.1038913171
    5      C      -1.2408217572    -0.0051173990    -0.6971298116
    6      C      -2.4419890213    -0.0079067929     0.0398187957
    7      H      -3.3844734185    -0.0135801935    -0.4975105738
    8      C      -2.4276574980    -0.0041394871     1.4160360195
    9      C      -1.4426100642     0.0028156111     3.5397365623
   10      C      -0.6659386828     0.0079603302     4.6713030530
   11      H       0.4163316130     0.0101364321     4.6229295686
   12      C      -2.8432994655     0.0005518061     3.6792592710
   13      C      -3.4976550634     0.0031048068     4.9084116493
   14      C      -3.4887304721    -0.0041907352     2.4241442904
   15      C      -4.8604032747    -0.0072939022     2.4090828511
   16      H      -5.4204367369    -0.0116258729     1.4826184953
   17      C      -1.3051593458     0.0106236796     5.9313075243
   18      H      -0.6926618280     0.0149098137     6.8241425188
   19      C      -2.6744114974     0.0081147427     6.0606727998
   20      H      -3.1227939053     0.0105280486     7.0467848381
   21      C      -4.9114968652     0.0004637293     4.8590411056
   22      H      -5.4874008061     0.0021665319     5.7763719344
   23      C      -5.5532742083    -0.0045394326     3.6428218247
   24      H      -6.6355035783    -0.0066656235     3.6237780528
   25      B       1.3075670719     0.0064650218    -0.7901179280
   26      C       1.2975227164     0.0130393969    -2.3181717735
   27      C       2.5009665065     0.0199588137    -3.0534777285
   28      H       3.4575398117     0.0246615641    -2.5390469959
   29      C       2.4773283890     0.0181110967    -4.4230024995
   30      C       1.2402267857     0.0092069228    -5.1300245968
   31      C       0.0571803764     0.0040275505    -4.4247167733
   32      H      -0.8933016871    -0.0033002902    -4.9483786355
   33      C       0.0545510416     0.0055550703    -3.0150940532
   34      C       3.5658103353     0.0183700282    -5.3927113965
   35      C       4.9352753740     0.0246805288    -5.3129215932
   36      H       5.4531668353     0.0339088609    -4.3613507863
   37      C       2.9577672306     0.0073389710    -6.6622043143
   38      C       3.6673796301     0.0001345922    -7.8586663409
   39      C       1.5500308157     0.0019013238    -6.5596432953
   40      C       0.8222445731    -0.0109689745    -7.7217778254
   41      H      -0.2603526574    -0.0161595564    -7.7166116694
   42      C       5.6800593497     0.0179990304    -6.5130093784
   43      H       6.7611097925     0.0224267708    -6.4533761544
   44      C       5.0794990318     0.0058766901    -7.7508339287
   45      H       5.6906543526     0.0004222399    -8.6450724393
   46      C       1.5157275310    -0.0184758976    -8.9549288447
   47      H       0.9363811951    -0.0292032458    -9.8691131414
   48      C       2.8884418788    -0.0131093241    -9.0398973282
   49      H       3.3712401759    -0.0196534627   -10.0092763372
   50      B      -1.2733688875    -0.0107922363    -2.2357901545
   51      C       2.6615840855    -0.0022041076    -0.0134125237
   52      C       3.2810458149    -1.2454651759     0.3599347152
   53      C       4.4446143386    -1.2302064299     1.0791453196
   54      H       4.9143974201    -2.1623314214     1.3700900219
   55      C       5.0579946306    -0.0166977759     1.4586842291
   56      C       4.4655651727     1.2014485909     1.0920430931
   57      H       4.9437163987     2.1266922874     1.3882277655
   58      C       3.2979933343     1.2319121645     0.3715043869
   59      C       6.3181070862    -0.0508530234     2.2449116021
   60      H       6.7224175215     0.9415017615     2.4280881209
   61      H       7.0768446420    -0.6456221009     1.7317884742
   62      H       6.1494625513    -0.5352244448     3.2102049675
   63      C       2.6584308006     2.5184572576    -0.0163055616
   64      H       3.2417886009     3.3773476388     0.3104214124
   65      H       2.5284487996     2.5717940961    -1.0982965582
   66      H       1.6580979808     2.5902961121     0.4148599720
   67      C       2.6272962442    -2.5249838804    -0.0371591517
   68      H       3.2082628517    -3.3906937449     0.2764500190
   69      H       2.4905097807    -2.5678186057    -1.1183553227
   70      H       1.6312062754    -2.5966304606     0.4026158772
   71      C      -2.6476472052    -0.0463462531    -2.9973713133
   72      C      -3.2440603782    -1.2695586426    -3.3234620204
   73      C      -4.4559574382    -1.2910819837    -4.0046263929
   74      H      -4.9071614730    -2.2463830396    -4.2528892911
   75      C      -5.1006913639    -0.1186816112    -4.3743903917
   76      C      -4.5047687537     1.0933725778    -4.0402120153
   77      H      -4.9965846609     2.0207420388    -4.3169789922
   78      C      -3.2956795027     1.1423460532    -3.3610462011
   79      C      -6.3997146154    -0.1503945480    -5.1255992448
   80      H      -6.8004221626    -1.1616330106    -5.1906587235
   81      H      -7.1554013159     0.4741360227    -4.6467280231
   82      H      -6.2777995504     0.2190381081    -6.1458024055
   83      C      -2.6705974870     2.4625958078    -3.0081144975
   84      H      -3.2821781626     3.3023616945    -3.3382687899
   85      H      -1.6841271992     2.5681433557    -3.4647819733
   86      H      -2.5285962227     2.5564095197    -1.9292783598
   87      C      -2.5696333001    -2.5556661042    -2.9340881388
   88      H      -3.1440402492    -3.4264142231    -3.2508913041
   89      H      -2.4352569780    -2.6216504265    -1.8522356890
   90      H      -1.5753897434    -2.6333124938    -3.3795236474
 ----------------------------------------------------------------

   15   -1973.7115554319      5.50E-09 Convergence criterion met
 Total energy in the final basis set = -1973.71155543

         TDDFT/TDA Excitation Energies
 ---------------------------------------------------

 Excited state   1: excitation energy (eV) =    2.2425
 Total energy for state  1:                 -1973.62914420 au
    Multiplicity: Triplet
    Trans. Mom.:  0.0000 X   0.0000 Y   0.0000 Z
    Strength   :     0.0000000000
    D(167) --> V(  2) amplitude = -0.2486
    D(172) --> V(  1) amplitude =  0.9181

 Excited state   2: excitation energy (eV) =    2.4434
 Total energy for state  2:                 -1973.62176103 au
    Multiplicity: Triplet
    Trans. Mom.:  0.0000 X   0.0000 Y   0.0000 Z
    Strength   :     0.0000000000
    D(171) --> V(  2) amplitude =  0.4805
    D(173) --> V(  1) amplitude =  0.8042

 Excited state   3: excitation energy (eV) =    2.5045
 Total energy for state  3:                 -1973.61951616 au
    Multiplicity: Triplet
    Trans. Mom.:  0.0000 X   0.0000 Y   0.0000 Z
    Strength   :     0.0000000000
    D(171) --> V(  1) amplitude =  0.7398
    D(171) --> V(  4) amplitude = -0.2380
    D(173) --> V(  2) amplitude =  0.5528

 Excited state   4: excitation energy (eV) =    2.7409
 Total energy for state  4:                 -1973.61082865 au
    Multiplicity: Triplet
    Trans. Mom.:  0.0000 X   0.0000 Y   0.0000 Z
    Strength   :     0.0000000000
    D(167) --> V(  1) amplitude = -0.7105
    D(172) --> V(  2) amplitude =  0.5590

 Excited state   5: excitation energy (eV) =    2.7923
 Total energy for state  5:                 -1973.60894151 au
    Multiplicity: Triplet
    Trans. Mom.:  0.0000 X   0.0000 Y   0.0000 Z
    Strength   :     0.0000000000
    D(174) --> V(  1) amplitude =  0.9540

 Excited state   6: excitation energy (eV) =    2.8462
 Total energy for state  6:                 -1973.60696089 au
    Multiplicity: Singlet
    Trans. Mom.: -0.0151 X  -0.0062 Y   0.0462 Z
    Strength   :     0.0001671443
    D(174) --> V(  1) amplitude =  0.9685

 Excited state   7: excitation energy (eV) =    2.9091
 Total energy for state  7:                 -1973.60464761 au
    Multiplicity: Singlet
    Trans. Mom.:  0.0197 X  -0.0014 Y  -0.0478 Z
    Strength   :     0.0001904069
    D(172) --> V(  1) amplitude =  0.9678

 Excited state   8: excitation energy (eV) =    3.1424
 Total energy for state  8:                 -1973.59607497 au
    Multiplicity: Singlet
    Trans. Mom.: -2.0509 X   0.0011 Y   3.6420 Z
    Strength   :     1.3449761273
    D(173) --> V(  1) amplitude =  0.9554

 Excited state   9: excitation energy (eV) =    3.1450
 Total energy for state  9:                 -1973.59597851 au
    Multiplicity: Triplet
    Trans. Mom.:  0.0000 X   0.0000 Y   0.0000 Z
    Strength   :     0.0000000000
    D(170) --> V(  1) amplitude =  0.9502

 Excited state  10: excitation energy (eV) =    3.1939
 Total energy for state 10:                 -1973.59418218 au
    Multiplicity: Singlet
    Trans. Mom.: -0.1142 X  -0.0021 Y   0.2418 Z
    Strength   :     0.0055967409
    D(170) --> V(  1) amplitude =  0.9648

 Excited state  11: excitation energy (eV) =    3.4563
 Total energy for state 11:                 -1973.58453934 au
    Multiplicity: Singlet
    Trans. Mom.:  0.0472 X   0.0043 Y   0.0076 Z
    Strength   :     0.0001950522
    D(171) --> V(  1) amplitude =  0.9381

 Excited state  12: excitation energy (eV) =    3.6347
 Total energy for state 12:                 -1973.57798222 au
    Multiplicity: Singlet
    Trans. Mom.:  0.0352 X   0.0036 Y  -0.0572 Z
    Strength   :     0.0004024722
    D(169) --> V(  1) amplitude =  0.9865

 ---------------------------------------------------

                    Orbital Energies (a.u.)
 --------------------------------------------------------------

 Alpha MOs
 -- Occupied --
-10.466 -10.466 -10.466 -10.466 -10.465 -10.465 -10.464 -10.464
-10.464 -10.464 -10.464 -10.464 -10.462 -10.462 -10.462 -10.462
-10.461 -10.461 -10.459 -10.459 -10.459 -10.459 -10.456 -10.455
-10.454 -10.454 -10.450 -10.449 -10.449 -10.449 -10.449 -10.449
-10.448 -10.448 -10.436 -10.436 -10.435 -10.435 -10.431 -10.431
-10.430 -10.429 -10.427 -10.425 -10.425 -10.424 -10.423 -10.423
-10.422 -10.419  -6.947  -6.941  -1.017  -1.017  -0.963  -0.960
 -0.956  -0.950  -0.934  -0.934  -0.909  -0.900  -0.872  -0.871
 -0.869  -0.866  -0.856  -0.855  -0.847  -0.847  -0.824  -0.814
 -0.812  -0.805  -0.780  -0.779  -0.759  -0.758  -0.758  -0.751
 -0.736  -0.727  -0.727  -0.721  -0.690  -0.682  -0.680  -0.667
 -0.652  -0.646  -0.640  -0.639  -0.636  -0.632  -0.595  -0.592
 -0.591  -0.588  -0.583  -0.576  -0.576  -0.552  -0.546  -0.544
 -0.541  -0.539  -0.528  -0.526  -0.520  -0.508  -0.504  -0.498
 -0.496  -0.495  -0.492  -0.486  -0.486  -0.486  -0.480  -0.480
 -0.479  -0.479  -0.475  -0.467  -0.466  -0.465  -0.464  -0.464
 -0.462  -0.459  -0.458  -0.455  -0.452  -0.449  -0.447  -0.445
 -0.444  -0.441  -0.432  -0.432  -0.427  -0.425  -0.414  -0.412
 -0.409  -0.402  -0.398  -0.396  -0.396  -0.394  -0.392  -0.389
 -0.382  -0.380  -0.380  -0.375  -0.375  -0.367  -0.355  -0.352
 -0.350  -0.337  -0.322  -0.316  -0.297  -0.296  -0.283  -0.276
 -0.274  -0.265  -0.263  -0.258  -0.256  -0.253

          Ground-State Mulliken Net Atomic Charges

     Atom                 Charge (a.u.)
  ----------------------------------------
      1 C                    -0.152734
      2 C                    -0.387820
      3 H                     0.244475
      4 C                     0.078196
      5 C                    -0.151541
      6 C                    -0.403314
      7 H                     0.243305
      8 C                     0.107881
      9 C                     0.188240
     10 C                    -0.385343
     11 H                     0.242855
     12 C                    -0.069972
     13 C                     0.230935
     14 C                     0.186929
     15 C                    -0.393458
     16 H                     0.242625
     17 C                    -0.224151
     18 H                     0.247862
     19 C                    -0.341404
     20 H                     0.243398
     21 C                    -0.345212
     22 H                     0.243971
     23 C                    -0.222248
     24 H                     0.246897
     25 B                     0.682987
     26 C                    -0.153714
     27 C                    -0.389377
     28 H                     0.243243
     29 C                     0.078656
     30 C                     0.108598
     31 C                    -0.403320
     32 H                     0.242794
     33 C                    -0.151452
     34 C                     0.187507
     35 C                    -0.384515
     36 H                     0.243025
     37 C                    -0.068927
     38 C                     0.232616
     39 C                     0.184762
     40 C                    -0.392813
     41 H                     0.242603
     42 C                    -0.224500
     43 H                     0.247867
     44 C                    -0.342271
     45 H                     0.243449
     46 C                    -0.222243
     47 H                     0.247021
     48 C                    -0.345587
     49 H                     0.243926
     50 B                     0.695040
     51 C                    -0.247653
     52 C                     0.066692
     53 C                    -0.350197
     54 H                     0.215358
     55 C                     0.104135
     56 C                    -0.357293
     57 H                     0.216977
     58 C                     0.065479
     59 C                    -0.718861
     60 H                     0.234976
     61 H                     0.234872
     62 H                     0.235188
     63 C                    -0.766118
     64 H                     0.244708
     65 H                     0.246515
     66 H                     0.246335
     67 C                    -0.765881
     68 H                     0.244745
     69 H                     0.246709
     70 H                     0.246546
     71 C                    -0.222824
     72 C                     0.052991
     73 C                    -0.362878
     74 H                     0.216012
     75 C                     0.116080
     76 C                    -0.354393
     77 H                     0.215077
     78 C                     0.055478
     79 C                    -0.718087
     80 H                     0.234105
     81 H                     0.234827
     82 H                     0.237027
     83 C                    -0.768041
     84 H                     0.245081
     85 H                     0.245966
     86 H                     0.245932
     87 C                    -0.769182
     88 H                     0.245496
     89 H                     0.246239
     90 H                     0.246113
  ----------------------------------------
  Sum of atomic charges =    -0.000000

                    Cartesian Multipole Moments
 -----------------------------------------------------------------
    Charge (ESU x 10^10)
                -0.0000
    Dipole Moment (Debye)
         X       0.0804      Y      -0.0378      Z       0.0569
       Tot       0.1054
    Quadrupole Moments (Debye-Ang)
        XX    -253.8242     XY      -0.5110     YY    -301.7129
        XZ      -7.6575     YZ      -0.0668     ZZ    -243.0774

 Total job time:  9256.01s(wall), 39128.60s(cpu)
        *  Thank you very much for using Q-Chem.  Have a nice day.  *
