 Q-Chem 5.1, Q-Chem, Inc., Pleasanton, CA (2018)
 Q-Chem 5.1.1 for Intel X86 EM64T Linux

User input:
--------------------------------------------------------------
$solvent
dielectric      2.03
dielectric_infi 2.02
$end

$rem
threads 8
jobtype	sp
method PBEh-3c
basis def2-mSVP
mem_static	1024
mem_total	14000
sym_ignore	true
cis_n_roots             6
cis_singlets            false
cis_triplets		true
rpa                     false
calc_soc 		true
cis_moments             true
cis_relaxed_density	true
solvent_method		pcm
$end

$pcm
StateSpecific   5
ChargeSeparation Excited
$end

$molecule
read tCTopt.mol
$end

--------------------------------------------------------------

   15   -1973.7088596513      4.60e-09  Convergence criterion met
 Total energy in the final basis set =    -1973.7088596513
 Total job time:  6150.50s(wall), 27591.78s(cpu)
        *  Thank you very much for using Q-Chem.  Have a nice day.  *
 Q-Chem 5.1, Q-Chem, Inc., Pleasanton, CA (2018)
 Q-Chem 5.1.1 for Intel X86 EM64T Linux

User input:
--------------------------------------------------------------
$rem
threads 8
jobtype sp
method PBEh-3c
basis def2-mSVP
mem_static      1024
mem_total       14000
sym_ignore      true
cis_n_roots             6
cis_singlets            true
cis_triplets            true
rpa                     false
calc_soc                true
cis_moments             true
cis_relaxed_density     true
solvent_method          pcm
$end

$molecule
read
$end

$pcm
statespecific           Marcus
$end

$solvent
dielectric      2.03
dielectric_infi 2.02
$end

--------------------------------------------------------------

             Standard Nuclear Orientation (Angstroms)
    I     Atom           X                Y                Z
 ----------------------------------------------------------------
    1      C       0.0000000000     0.0000000000     0.0000000000
    2      C       0.0000000000     0.0000000000     1.4038180000
    3      H       0.9486425282     0.0000000000     1.9309856118
    4      C      -1.1790940021    -0.0002160391     2.1063382580
    5      C      -1.2466383946     0.0013577398    -0.6898305022
    6      C      -2.4538357648     0.0026725235     0.0509603536
    7      H      -3.4107347503     0.0051261189    -0.4623090231
    8      C      -2.4298751666     0.0015127092     1.4235737493
    9      C      -1.4346870837    -0.0027181712     3.5398443519
   10      C      -0.6510292301    -0.0057963518     4.6670930415
   11      H       0.4305554067    -0.0065402813     4.6103179650
   12      C      -2.8351519006    -0.0021008547     3.6889677016
   13      C      -3.4820983180    -0.0041183296     4.9220560775
   14      C      -3.4887833492     0.0009405772     2.4390823747
   15      C      -4.8602133228     0.0027973064     2.4321009960
   16      H      -5.4276200127     0.0058144187     1.5097846328
   17      C      -1.2840345824    -0.0081543485     5.9306279730
   18      H      -0.6650621095    -0.0107777412     6.8189611320
   19      C      -2.6521457158    -0.0071891361     6.0702248615
   20      H      -3.0944900345    -0.0091184767     7.0589505723
   21      C      -4.8955422672    -0.0027070946     4.8805138804
   22      H      -5.4657295547    -0.0040227929     5.8015306875
   23      C      -5.5466644075     0.0006615970     3.6690288397
   24      H      -6.6290451733     0.0019082943     3.6577737469
   25      B      -1.2374780187    -0.0005559454    -2.2200388872
   26      C       0.0690222204     0.0021605163    -3.0151410932
   27      C       0.0856646315     0.0097245433    -4.4316181349
   28      H      -0.8467273953     0.0121569867    -4.9884807825
   29      C       1.2766631222     0.0166676176    -5.1162000959
   30      C       2.5038538265     0.0123703096    -4.3920424378
   31      C       2.5056775232     0.0030616260    -3.0188692000
   32      H       3.4438416827     0.0000456449    -2.4732086899
   33      C       1.3013864771    -0.0008937785    -2.2979095280
   34      C       3.6030396607     0.0224082808    -5.3444191803
   35      C       4.9715280142     0.0240777743    -5.2436832680
   36      H       5.4728704327     0.0151500979    -4.2836204169
   37      C       3.0152930723     0.0343333738    -6.6243276449
   38      C       3.7432269931     0.0493448481    -7.8096763855
   39      C       1.6070353045     0.0310919542    -6.5446982930
   40      C       0.8970540485     0.0434001718    -7.7174410777
   41      H      -0.1857647927     0.0422476846    -7.7307303490
   42      C       5.7336077564     0.0386167985    -6.4332536881
   43      H       6.8134835726     0.0402459654    -6.3557182324
   44      C       5.1541781133     0.0511595624    -7.6808923303
   45      H       5.7789709238     0.0626707754    -8.5655039562
   46      C       2.9822449572     0.0617676803    -9.0016904393
   47      H       3.4800928017     0.0740019939    -9.9634807681
   48      C       1.6080780075     0.0588205022    -8.9400701351
   49      H       1.0439528994     0.0689767896    -9.8637828299
   50      B       1.3351234189    -0.0049898145    -0.7608192521
   51      C      -2.5980768628    -0.0111918663    -2.9734850203
   52      C      -3.2413554799     1.2213018991    -3.3366171739
   53      C      -4.4213295542     1.1829241153    -4.0262839004
   54      H      -4.9130656130     2.1041765959    -4.3149825620
   55      C      -5.0245915718    -0.0460171904    -4.3777824958
   56      C      -4.4092235530    -1.2536807873    -4.0118646105
   57      H      -4.8845752880    -2.1876860495    -4.2839750950
   58      C      -3.2250230506    -1.2609025017    -3.3199271914
   59      C      -6.3055620590    -0.0406300614    -5.1289450950
   60      H      -6.6753736533    -1.0430731054    -5.3289315786
   61      H      -7.0719449956     0.5065728283    -4.5751820315
   62      H      -6.1854599225     0.4793331637    -6.0824536692
   63      C      -2.5576746905    -2.5294697992    -2.9174153124
   64      H      -3.1217542975    -3.4052416979    -3.2328380780
   65      H      -2.4283400399    -2.5653619358    -1.8341742827
   66      H      -1.5542007413    -2.5850954625    -3.3436245036
   67      C      -2.5903845371     2.5058978484    -2.9516834659
   68      H      -3.1709088633     3.3685364757    -3.2738031376
   69      H      -2.4566981767     2.5573700365    -1.8700081794
   70      H      -1.5918281978     2.5739075735    -3.3864940997
   71      C       2.7022137971    -0.0159994723     0.0285319693
   72      C       3.3235410249     1.1811167202     0.4038223872
   73      C       4.5149710579     1.1559860371     1.1217945370
   74      H       4.9815491085     2.0936970482     1.4061106652
   75      C       5.1193246643    -0.0393410921     1.4841828010
   76      C       4.4970862269    -1.2250941697     1.1107512755
   77      H       4.9505171543    -2.1720783442     1.3873698941
   78      C       3.3084382292    -1.2275704476     0.3940083437
   79      C       6.4123427833    -0.0628753899     2.2469923185
   80      H       6.7118159990     0.9366280506     2.5609431988
   81      H       6.3383257104    -0.6813881819     3.1430143257
   82      H       7.2237406040    -0.4725082639     1.6419594197
   83      C       2.6950901377     2.4962155890     0.0395119002
   84      H       3.3038255027     3.3393089927     0.3668714378
   85      H       2.5562994453     2.5842306472    -1.0398206606
   86      H       1.7082466005     2.6020973066     0.4951173853
   87      C       2.6624978920    -2.5311705858     0.0173829382
   88      H       3.2579832535    -3.3852402542     0.3409313378
   89      H       2.5266877043    -2.6103092186    -1.0630509462
   90      H       1.6724552947    -2.6271428329     0.4684410257
 ----------------------------------------------------------------

   15   -1973.7088206003      4.60e-09  Convergence criterion met
 Total energy in the final basis set =    -1973.7088206003

         TDDFT/TDA Excitation Energies
 ---------------------------------------------------

 Excited state   1: excitation energy (eV) =    2.2296
 Total energy for state  1:                 -1973.62688442 au
    Multiplicity: Triplet
    Trans. Mom.:  0.0000 X   0.0000 Y   0.0000 Z
    Strength   :     0.0000000000
    D(167) --> V(  2) amplitude =  0.2440
    D(172) --> V(  1) amplitude =  0.7405
    D(173) --> V(  1) amplitude =  0.5431

 Excited state   2: excitation energy (eV) =    2.4450
 Total energy for state  2:                 -1973.61896897 au
    Multiplicity: Triplet
    Trans. Mom.:  0.0000 X   0.0000 Y   0.0000 Z
    Strength   :     0.0000000000
    D(171) --> V(  2) amplitude =  0.4763
    D(172) --> V(  1) amplitude = -0.4928
    D(173) --> V(  1) amplitude =  0.6372

 Excited state   3: excitation energy (eV) =    2.5001
 Total energy for state  3:                 -1973.61694505 au
    Multiplicity: Triplet
    Trans. Mom.:  0.0000 X   0.0000 Y   0.0000 Z
    Strength   :     0.0000000000
    D(171) --> V(  1) amplitude =  0.7388
    D(171) --> V(  4) amplitude =  0.2364
    D(172) --> V(  2) amplitude = -0.2198
    D(173) --> V(  2) amplitude =  0.5069

 Excited state   4: excitation energy (eV) =    2.7361
 Total energy for state  4:                 -1973.60826961 au
    Multiplicity: Triplet
    Trans. Mom.:  0.0000 X   0.0000 Y   0.0000 Z
    Strength   :     0.0000000000
    D(167) --> V(  1) amplitude = -0.7092
    D(172) --> V(  2) amplitude = -0.5163
    D(173) --> V(  2) amplitude = -0.2170

 Excited state   5: excitation energy (eV) =    2.7848
 Total energy for state  5:                 -1973.60648001 au
    Multiplicity: Triplet
    Trans. Mom.:  0.0000 X   0.0000 Y   0.0000 Z
    Strength   :     0.0000000000
    D(174) --> V(  1) amplitude =  0.9550

 Excited state   6: excitation energy (eV) =    2.8388
 Total energy for state  6:                 -1973.60449499 au
    Multiplicity: Singlet
    Trans. Mom.: -0.0169 X   0.0032 Y   0.0158 Z
    Strength   :     0.0000379478
    D(174) --> V(  1) amplitude =  0.9686

 Excited state   7: excitation energy (eV) =    2.8993
 Total energy for state  7:                 -1973.60227460 au
    Multiplicity: Singlet
    Trans. Mom.:  0.2056 X   0.0010 Y  -0.3565 Z
    Strength   :     0.0120303276
    D(172) --> V(  1) amplitude =  0.7995
    D(173) --> V(  1) amplitude =  0.5460

 Excited state   8: excitation energy (eV) =    3.1513
 Total energy for state  8:                 -1973.59301197 au
    Multiplicity: Singlet
    Trans. Mom.:  2.0245 X   0.0152 Y  -3.5617 Z
    Strength   :     1.2958771941
    D(172) --> V(  1) amplitude = -0.5389
    D(173) --> V(  1) amplitude =  0.7894

 Excited state   9: excitation energy (eV) =    3.1597
 Total energy for state  9:                 -1973.59270398 au
    Multiplicity: Triplet
    Trans. Mom.:  0.0000 X   0.0000 Y   0.0000 Z
    Strength   :     0.0000000000
    D(170) --> V(  1) amplitude =  0.9510

 Excited state  10: excitation energy (eV) =    3.2090
 Total energy for state 10:                 -1973.59089197 au
    Multiplicity: Singlet
    Trans. Mom.:  0.0482 X  -0.0052 Y  -0.0842 Z
    Strength   :     0.0007415422
    D(170) --> V(  1) amplitude =  0.9665

 Excited state  11: excitation energy (eV) =    3.4618
 Total energy for state 11:                 -1973.58160247 au
    Multiplicity: Singlet
    Trans. Mom.: -0.1718 X  -0.0151 Y  -0.0716 Z
    Strength   :     0.0029572388
    D(171) --> V(  1) amplitude =  0.9373

 Excited state  12: excitation energy (eV) =    3.6262
 Total energy for state 12:                 -1973.57556089 au
    Multiplicity: Singlet
    Trans. Mom.:  0.0751 X  -0.0001 Y  -0.0314 Z
    Strength   :     0.0005884686
    D(169) --> V(  1) amplitude =  0.9865

 ---------------------------------------------------

                    Orbital Energies (a.u.)
 --------------------------------------------------------------

 Alpha MOs
 -- Occupied --
-10.465 -10.465 -10.465 -10.465 -10.465 -10.465 -10.464 -10.464
-10.463 -10.463 -10.463 -10.463 -10.462 -10.462 -10.461 -10.461
-10.461 -10.461 -10.459 -10.458 -10.458 -10.458 -10.456 -10.456
-10.453 -10.452 -10.449 -10.449 -10.448 -10.448 -10.448 -10.448
-10.448 -10.448 -10.436 -10.435 -10.434 -10.434 -10.431 -10.430
-10.430 -10.429 -10.428 -10.425 -10.425 -10.425 -10.423 -10.423
-10.420 -10.420  -6.946  -6.940  -1.016  -1.016  -0.963  -0.959
 -0.956  -0.950  -0.934  -0.933  -0.909  -0.899  -0.871  -0.871
 -0.868  -0.866  -0.855  -0.854  -0.847  -0.846  -0.824  -0.814
 -0.812  -0.804  -0.780  -0.779  -0.759  -0.758  -0.757  -0.751
 -0.735  -0.727  -0.727  -0.721  -0.689  -0.682  -0.680  -0.666
 -0.651  -0.646  -0.639  -0.638  -0.636  -0.632  -0.595  -0.591
 -0.591  -0.588  -0.583  -0.576  -0.575  -0.552  -0.545  -0.543
 -0.541  -0.539  -0.527  -0.526  -0.520  -0.507  -0.504  -0.497
 -0.496  -0.494  -0.491  -0.486  -0.486  -0.485  -0.480  -0.479
 -0.479  -0.478  -0.475  -0.467  -0.466  -0.465  -0.464  -0.463
 -0.462  -0.459  -0.458  -0.455  -0.452  -0.449  -0.448  -0.444
 -0.444  -0.441  -0.431  -0.431  -0.427  -0.424  -0.413  -0.411
 -0.410  -0.402  -0.398  -0.396  -0.396  -0.393  -0.392  -0.388
 -0.382  -0.380  -0.379  -0.375  -0.374  -0.367  -0.354  -0.351
 -0.349  -0.336  -0.321  -0.315  -0.296  -0.295  -0.282  -0.276
 -0.273  -0.265  -0.262  -0.257  -0.255  -0.252

          Ground-State Mulliken Net Atomic Charges

     Atom                 Charge (a.u.)
  ----------------------------------------
      1 C                    -0.150056
      2 C                    -0.393064
      3 H                     0.242818
      4 C                     0.083989
      5 C                    -0.155270
      6 C                    -0.396704
      7 H                     0.241850
      8 C                     0.104245
      9 C                     0.186265
     10 C                    -0.383393
     11 H                     0.239836
     12 C                    -0.069244
     13 C                     0.233715
     14 C                     0.192675
     15 C                    -0.393033
     16 H                     0.239791
     17 C                    -0.222313
     18 H                     0.244618
     19 C                    -0.339318
     20 H                     0.240383
     21 C                    -0.344721
     22 H                     0.240620
     23 C                    -0.219048
     24 H                     0.244349
     25 B                     0.684941
     26 C                    -0.154309
     27 C                    -0.396938
     28 H                     0.241257
     29 C                     0.104860
     30 C                     0.085103
     31 C                    -0.394269
     32 H                     0.241774
     33 C                    -0.149766
     34 C                     0.185308
     35 C                    -0.382415
     36 H                     0.239930
     37 C                    -0.068283
     38 C                     0.235457
     39 C                     0.190661
     40 C                    -0.392352
     41 H                     0.239833
     42 C                    -0.222743
     43 H                     0.244599
     44 C                    -0.340014
     45 H                     0.240479
     46 C                    -0.345155
     47 H                     0.240599
     48 C                    -0.219072
     49 H                     0.244477
     50 B                     0.695620
     51 C                    -0.243939
     52 C                     0.070466
     53 C                    -0.350221
     54 H                     0.212238
     55 C                     0.105085
     56 C                    -0.357808
     57 H                     0.213882
     58 C                     0.066197
     59 C                    -0.717594
     60 H                     0.233635
     61 H                     0.233734
     62 H                     0.233707
     63 C                    -0.766992
     64 H                     0.243184
     65 H                     0.247202
     66 H                     0.247147
     67 C                    -0.765935
     68 H                     0.242783
     69 H                     0.247070
     70 H                     0.246997
     71 C                    -0.227370
     72 C                     0.054494
     73 C                    -0.358285
     74 H                     0.213476
     75 C                     0.118262
     76 C                    -0.350904
     77 H                     0.212900
     78 C                     0.054349
     79 C                    -0.717405
     80 H                     0.233155
     81 H                     0.234321
     82 H                     0.236438
     83 C                    -0.766096
     84 H                     0.243599
     85 H                     0.245602
     86 H                     0.245457
     87 C                    -0.765977
     88 H                     0.243498
     89 H                     0.245586
     90 H                     0.245487
  ----------------------------------------
  Sum of atomic charges =    -0.000000

                    Cartesian Multipole Moments
 -----------------------------------------------------------------
    Charge (ESU x 10^10)
                -0.0000
    Dipole Moment (Debye)
         X       0.2833      Y       0.0427      Z       0.1284
       Tot       0.3140
    Quadrupole Moments (Debye-Ang)
        XX    -254.9072     XY      -0.5337     YY    -301.8922
        XZ      -8.2277     YZ      -0.8686     ZZ    -245.2301

 Total job time:  9852.41s(wall), 43775.38s(cpu)
        *  Thank you very much for using Q-Chem.  Have a nice day.  *
