 Q-Chem 5.1, Q-Chem, Inc., Pleasanton, CA (2018)
 Q-Chem 5.1.1 for Intel X86 EM64T Linux

User input:
--------------------------------------------------------------
$solvent
dielectric      4.33
dielectric_infi 1.83
$end

$rem
threads 8
jobtype	sp
method PBEh-3c
basis def2-mSVP
mem_static	1024
mem_total	14000
sym_ignore	true
cis_n_roots             6
cis_singlets            false
cis_triplets		true
rpa                     false
calc_soc 		true
cis_moments             true
cis_relaxed_density	true
solvent_method		pcm
$end

$pcm
StateSpecific   5
ChargeSeparation Excited
$end

$molecule
read tCTopt.mol
$end

--------------------------------------------------------------

   14   -1973.7162808620      6.82e-09  Convergence criterion met
 Total energy in the final basis set =    -1973.7162808620
 Total job time:  6237.38s(wall), 22745.49s(cpu)
        *  Thank you very much for using Q-Chem.  Have a nice day.  *
 Q-Chem 5.1, Q-Chem, Inc., Pleasanton, CA (2018)
 Q-Chem 5.1.1 for Intel X86 EM64T Linux

User input:
--------------------------------------------------------------
$rem
threads 8
jobtype sp
method PBEh-3c
basis def2-mSVP
mem_static      1024
mem_total       14000
sym_ignore      true
cis_n_roots             6
cis_singlets            true
cis_triplets            true
rpa                     false
calc_soc                true
cis_moments             true
cis_relaxed_density     true
solvent_method          pcm
$end

$molecule
read
$end

$pcm
statespecific           Marcus
$end

$solvent
dielectric      4.33
dielectric_infi 1.83
$end

--------------------------------------------------------------

             Standard Nuclear Orientation (Angstroms)
    I     Atom           X                Y                Z
 ----------------------------------------------------------------
    1      C       0.0000000000     0.0000000000     0.0000000000
    2      C       0.0000000000     0.0000000000     1.4038180000
    3      H       0.9486425282     0.0000000000     1.9309856118
    4      C      -1.1790940021    -0.0002160391     2.1063382580
    5      C      -1.2466383946     0.0013577398    -0.6898305022
    6      C      -2.4538357648     0.0026725235     0.0509603536
    7      H      -3.4107347503     0.0051261189    -0.4623090231
    8      C      -2.4298751666     0.0015127092     1.4235737493
    9      C      -1.4346870837    -0.0027181712     3.5398443519
   10      C      -0.6510292301    -0.0057963518     4.6670930415
   11      H       0.4305554067    -0.0065402813     4.6103179650
   12      C      -2.8351519006    -0.0021008547     3.6889677016
   13      C      -3.4820983180    -0.0041183296     4.9220560775
   14      C      -3.4887833492     0.0009405772     2.4390823747
   15      C      -4.8602133228     0.0027973064     2.4321009960
   16      H      -5.4276200127     0.0058144187     1.5097846328
   17      C      -1.2840345824    -0.0081543485     5.9306279730
   18      H      -0.6650621095    -0.0107777412     6.8189611320
   19      C      -2.6521457158    -0.0071891361     6.0702248615
   20      H      -3.0944900345    -0.0091184767     7.0589505723
   21      C      -4.8955422672    -0.0027070946     4.8805138804
   22      H      -5.4657295547    -0.0040227929     5.8015306875
   23      C      -5.5466644075     0.0006615970     3.6690288397
   24      H      -6.6290451733     0.0019082943     3.6577737469
   25      B      -1.2374780187    -0.0005559454    -2.2200388872
   26      C       0.0690222204     0.0021605163    -3.0151410932
   27      C       0.0856646315     0.0097245433    -4.4316181349
   28      H      -0.8467273953     0.0121569867    -4.9884807825
   29      C       1.2766631222     0.0166676176    -5.1162000959
   30      C       2.5038538265     0.0123703096    -4.3920424378
   31      C       2.5056775232     0.0030616260    -3.0188692000
   32      H       3.4438416827     0.0000456449    -2.4732086899
   33      C       1.3013864771    -0.0008937785    -2.2979095280
   34      C       3.6030396607     0.0224082808    -5.3444191803
   35      C       4.9715280142     0.0240777743    -5.2436832680
   36      H       5.4728704327     0.0151500979    -4.2836204169
   37      C       3.0152930723     0.0343333738    -6.6243276449
   38      C       3.7432269931     0.0493448481    -7.8096763855
   39      C       1.6070353045     0.0310919542    -6.5446982930
   40      C       0.8970540485     0.0434001718    -7.7174410777
   41      H      -0.1857647927     0.0422476846    -7.7307303490
   42      C       5.7336077564     0.0386167985    -6.4332536881
   43      H       6.8134835726     0.0402459654    -6.3557182324
   44      C       5.1541781133     0.0511595624    -7.6808923303
   45      H       5.7789709238     0.0626707754    -8.5655039562
   46      C       2.9822449572     0.0617676803    -9.0016904393
   47      H       3.4800928017     0.0740019939    -9.9634807681
   48      C       1.6080780075     0.0588205022    -8.9400701351
   49      H       1.0439528994     0.0689767896    -9.8637828299
   50      B       1.3351234189    -0.0049898145    -0.7608192521
   51      C      -2.5980768628    -0.0111918663    -2.9734850203
   52      C      -3.2413554799     1.2213018991    -3.3366171739
   53      C      -4.4213295542     1.1829241153    -4.0262839004
   54      H      -4.9130656130     2.1041765959    -4.3149825620
   55      C      -5.0245915718    -0.0460171904    -4.3777824958
   56      C      -4.4092235530    -1.2536807873    -4.0118646105
   57      H      -4.8845752880    -2.1876860495    -4.2839750950
   58      C      -3.2250230506    -1.2609025017    -3.3199271914
   59      C      -6.3055620590    -0.0406300614    -5.1289450950
   60      H      -6.6753736533    -1.0430731054    -5.3289315786
   61      H      -7.0719449956     0.5065728283    -4.5751820315
   62      H      -6.1854599225     0.4793331637    -6.0824536692
   63      C      -2.5576746905    -2.5294697992    -2.9174153124
   64      H      -3.1217542975    -3.4052416979    -3.2328380780
   65      H      -2.4283400399    -2.5653619358    -1.8341742827
   66      H      -1.5542007413    -2.5850954625    -3.3436245036
   67      C      -2.5903845371     2.5058978484    -2.9516834659
   68      H      -3.1709088633     3.3685364757    -3.2738031376
   69      H      -2.4566981767     2.5573700365    -1.8700081794
   70      H      -1.5918281978     2.5739075735    -3.3864940997
   71      C       2.7022137971    -0.0159994723     0.0285319693
   72      C       3.3235410249     1.1811167202     0.4038223872
   73      C       4.5149710579     1.1559860371     1.1217945370
   74      H       4.9815491085     2.0936970482     1.4061106652
   75      C       5.1193246643    -0.0393410921     1.4841828010
   76      C       4.4970862269    -1.2250941697     1.1107512755
   77      H       4.9505171543    -2.1720783442     1.3873698941
   78      C       3.3084382292    -1.2275704476     0.3940083437
   79      C       6.4123427833    -0.0628753899     2.2469923185
   80      H       6.7118159990     0.9366280506     2.5609431988
   81      H       6.3383257104    -0.6813881819     3.1430143257
   82      H       7.2237406040    -0.4725082639     1.6419594197
   83      C       2.6950901377     2.4962155890     0.0395119002
   84      H       3.3038255027     3.3393089927     0.3668714378
   85      H       2.5562994453     2.5842306472    -1.0398206606
   86      H       1.7082466005     2.6020973066     0.4951173853
   87      C       2.6624978920    -2.5311705858     0.0173829382
   88      H       3.2579832535    -3.3852402542     0.3409313378
   89      H       2.5266877043    -2.6103092186    -1.0630509462
   90      H       1.6724552947    -2.6271428329     0.4684410257
 ----------------------------------------------------------------

   15   -1973.7109194990      4.74e-09  Convergence criterion met
 Total energy in the final basis set =    -1973.7109194990

         TDDFT/TDA Excitation Energies
 ---------------------------------------------------

 Excited state   1: excitation energy (eV) =    2.2571
 Total energy for state  1:                 -1973.62797099 au
    Multiplicity: Triplet
    Trans. Mom.:  0.0000 X   0.0000 Y   0.0000 Z
    Strength   :     0.0000000000
    D(167) --> V(  2) amplitude = -0.2457
    D(172) --> V(  1) amplitude =  0.7775
    D(173) --> V(  1) amplitude =  0.4597

 Excited state   2: excitation energy (eV) =    2.4527
 Total energy for state  2:                 -1973.62078294 au
    Multiplicity: Triplet
    Trans. Mom.:  0.0000 X   0.0000 Y   0.0000 Z
    Strength   :     0.0000000000
    D(170) --> V(  2) amplitude =  0.4729
    D(172) --> V(  1) amplitude = -0.4301
    D(173) --> V(  1) amplitude =  0.6790

 Excited state   3: excitation energy (eV) =    2.4839
 Total energy for state  3:                 -1973.61963946 au
    Multiplicity: Triplet
    Trans. Mom.:  0.0000 X   0.0000 Y   0.0000 Z
    Strength   :     0.0000000000
    D(174) --> V(  1) amplitude =  0.9632

 Excited state   4: excitation energy (eV) =    2.5063
 Total energy for state  4:                 -1973.61881424 au
    Multiplicity: Triplet
    Trans. Mom.:  0.0000 X   0.0000 Y   0.0000 Z
    Strength   :     0.0000000000
    D(170) --> V(  1) amplitude =  0.7311
    D(170) --> V(  4) amplitude =  0.2294
    D(173) --> V(  2) amplitude =  0.5266

 Excited state   5: excitation energy (eV) =    2.5272
 Total energy for state  5:                 -1973.61804616 au
    Multiplicity: Singlet
    Trans. Mom.:  0.0116 X  -0.0030 Y  -0.0070 Z
    Strength   :     0.0000119534
    D(174) --> V(  1) amplitude =  0.9723

 Excited state   6: excitation energy (eV) =    2.7563
 Total energy for state  6:                 -1973.60962743 au
    Multiplicity: Triplet
    Trans. Mom.:  0.0000 X   0.0000 Y   0.0000 Z
    Strength   :     0.0000000000
    D(167) --> V(  1) amplitude =  0.7056
    D(172) --> V(  2) amplitude = -0.5290

 Excited state   7: excitation energy (eV) =    2.9331
 Total energy for state  7:                 -1973.60313094 au
    Multiplicity: Singlet
    Trans. Mom.: -0.1654 X  -0.0005 Y   0.2869 Z
    Strength   :     0.0078791246
    D(172) --> V(  1) amplitude =  0.8455
    D(173) --> V(  1) amplitude =  0.4546

 Excited state   8: excitation energy (eV) =    3.1697
 Total energy for state  8:                 -1973.59443341 au
    Multiplicity: Singlet
    Trans. Mom.: -1.9966 X  -0.0150 Y   3.5121 Z
    Strength   :     1.2674636942
    D(172) --> V(  1) amplitude = -0.4476
    D(173) --> V(  1) amplitude =  0.8432

 Excited state   9: excitation energy (eV) =    3.1953
 Total energy for state  9:                 -1973.59349525 au
    Multiplicity: Triplet
    Trans. Mom.:  0.0000 X   0.0000 Y   0.0000 Z
    Strength   :     0.0000000000
    D(169) --> V(  1) amplitude =  0.9498

 Excited state  10: excitation energy (eV) =    3.2508
 Total energy for state 10:                 -1973.59145299 au
    Multiplicity: Singlet
    Trans. Mom.: -0.0436 X   0.0048 Y   0.0778 Z
    Strength   :     0.0006353889
    D(169) --> V(  1) amplitude =  0.9645

 Excited state  11: excitation energy (eV) =    3.3528
 Total energy for state 11:                 -1973.58770709 au
    Multiplicity: Singlet
    Trans. Mom.:  0.1162 X   0.0029 Y  -0.2211 Z
    Strength   :     0.0051238341
    D(171) --> V(  1) amplitude =  0.9678

 Excited state  12: excitation energy (eV) =    3.4767
 Total energy for state 12:                 -1973.58315378 au
    Multiplicity: Singlet
    Trans. Mom.:  0.1554 X   0.0149 Y   0.0551 Z
    Strength   :     0.0023343949
    D(170) --> V(  1) amplitude =  0.9292

 ---------------------------------------------------

                    Orbital Energies (a.u.)
 --------------------------------------------------------------

 Alpha MOs
 -- Occupied --
-10.470 -10.470 -10.470 -10.470 -10.469 -10.469 -10.468 -10.468
-10.468 -10.468 -10.467 -10.467 -10.466 -10.466 -10.466 -10.466
-10.465 -10.465 -10.463 -10.462 -10.462 -10.461 -10.459 -10.459
-10.458 -10.458 -10.456 -10.455 -10.454 -10.453 -10.453 -10.441
-10.441 -10.440 -10.440 -10.439 -10.439 -10.438 -10.437 -10.436
-10.431 -10.430 -10.430 -10.427 -10.419 -10.419 -10.418 -10.417
-10.413 -10.410  -6.952  -6.941  -1.022  -1.021  -0.968  -0.964
 -0.962  -0.942  -0.938  -0.938  -0.913  -0.904  -0.876  -0.874
 -0.864  -0.862  -0.860  -0.854  -0.851  -0.851  -0.828  -0.818
 -0.816  -0.809  -0.785  -0.770  -0.763  -0.763  -0.751  -0.745
 -0.739  -0.731  -0.729  -0.725  -0.693  -0.685  -0.684  -0.671
 -0.654  -0.650  -0.644  -0.644  -0.631  -0.624  -0.599  -0.594
 -0.594  -0.590  -0.587  -0.580  -0.579  -0.555  -0.547  -0.546
 -0.543  -0.531  -0.530  -0.529  -0.522  -0.511  -0.508  -0.502
 -0.499  -0.497  -0.493  -0.491  -0.491  -0.488  -0.485  -0.484
 -0.481  -0.475  -0.471  -0.470  -0.469  -0.469  -0.468  -0.460
 -0.460  -0.458  -0.454  -0.453  -0.451  -0.449  -0.447  -0.445
 -0.444  -0.440  -0.435  -0.433  -0.429  -0.429  -0.416  -0.414
 -0.402  -0.402  -0.401  -0.401  -0.400  -0.397  -0.396  -0.390
 -0.387  -0.385  -0.384  -0.376  -0.368  -0.363  -0.357  -0.356
 -0.352  -0.336  -0.326  -0.321  -0.301  -0.300  -0.288  -0.280
 -0.271  -0.267  -0.267  -0.263  -0.260  -0.244

          Ground-State Mulliken Net Atomic Charges

     Atom                 Charge (a.u.)
  ----------------------------------------
      1 C                    -0.151884
      2 C                    -0.397190
      3 H                     0.244373
      4 C                     0.076100
      5 C                    -0.157092
      6 C                    -0.398822
      7 H                     0.258908
      8 C                     0.097663
      9 C                     0.178584
     10 C                    -0.389464
     11 H                     0.248555
     12 C                    -0.071881
     13 C                     0.223212
     14 C                     0.185119
     15 C                    -0.397413
     16 H                     0.255538
     17 C                    -0.232074
     18 H                     0.255248
     19 C                    -0.345061
     20 H                     0.252266
     21 C                    -0.350104
     22 H                     0.252601
     23 C                    -0.228642
     24 H                     0.256806
     25 B                     0.683245
     26 C                    -0.156219
     27 C                    -0.399425
     28 H                     0.258367
     29 C                     0.098326
     30 C                     0.077127
     31 C                    -0.398642
     32 H                     0.243607
     33 C                    -0.151422
     34 C                     0.177635
     35 C                    -0.388524
     36 H                     0.248769
     37 C                    -0.070915
     38 C                     0.224978
     39 C                     0.183061
     40 C                    -0.396738
     41 H                     0.255583
     42 C                    -0.232489
     43 H                     0.255227
     44 C                    -0.345774
     45 H                     0.252346
     46 C                    -0.350557
     47 H                     0.252569
     48 C                    -0.228683
     49 H                     0.256958
     50 B                     0.681102
     51 C                    -0.250397
     52 C                     0.073328
     53 C                    -0.351221
     54 H                     0.224092
     55 C                     0.105701
     56 C                    -0.360495
     57 H                     0.226031
     58 C                     0.069677
     59 C                    -0.720351
     60 H                     0.237646
     61 H                     0.238157
     62 H                     0.238092
     63 C                    -0.770709
     64 H                     0.252703
     65 H                     0.242145
     66 H                     0.242117
     67 C                    -0.769746
     68 H                     0.252299
     69 H                     0.241787
     70 H                     0.241764
     71 C                    -0.224651
     72 C                     0.048839
     73 C                    -0.367211
     74 H                     0.224006
     75 C                     0.110738
     76 C                    -0.358398
     77 H                     0.222962
     78 C                     0.048341
     79 C                    -0.721401
     80 H                     0.237801
     81 H                     0.238129
     82 H                     0.239972
     83 C                    -0.769155
     84 H                     0.250284
     85 H                     0.245212
     86 H                     0.245220
     87 C                    -0.768969
     88 H                     0.250217
     89 H                     0.245289
     90 H                     0.245293
  ----------------------------------------
  Sum of atomic charges =    -0.000000

                    Cartesian Multipole Moments
 -----------------------------------------------------------------
    Charge (ESU x 10^10)
                -0.0000
    Dipole Moment (Debye)
         X      -0.9194      Y       0.0329      Z      -0.5480
       Tot       1.0709
    Quadrupole Moments (Debye-Ang)
        XX    -246.7342     XY      -0.5938     YY    -301.2611
        XZ      -4.3054     YZ      -0.9257     ZZ    -237.4354

 Total job time:  11336.52s(wall), 38525.21s(cpu)
        *  Thank you very much for using Q-Chem.  Have a nice day.  *
