 Q-Chem 5.1, Q-Chem, Inc., Pleasanton, CA (2018)
 Q-Chem 5.1.1 for Intel X86 EM64T Linux

User input:
--------------------------------------------------------------
$solvent
dielectric      8.93
dielectric_infi 2.03
$end

$rem
threads 8
jobtype	sp
method PBEh-3c
basis def2-mSVP
mem_static	1024
mem_total	14000
sym_ignore	true
cis_n_roots             6
cis_singlets            false
cis_triplets		true
rpa                     false
calc_soc 		true
cis_moments             true
cis_relaxed_density	true
solvent_method		pcm
$end

$pcm
StateSpecific   5
ChargeSeparation Excited
$end

$molecule
read tCTopt.mol
$end

--------------------------------------------------------------

   14   -1973.7198740087      6.37e-09  Convergence criterion met
 Total energy in the final basis set =    -1973.7198740087
 Total job time:  5836.15s(wall), 21318.55s(cpu)
        *  Thank you very much for using Q-Chem.  Have a nice day.  *
 Q-Chem 5.1, Q-Chem, Inc., Pleasanton, CA (2018)
 Q-Chem 5.1.1 for Intel X86 EM64T Linux

User input:
--------------------------------------------------------------
$rem
threads 8
jobtype sp
method PBEh-3c
basis def2-mSVP
mem_static      1024
mem_total       14000
sym_ignore      true
cis_n_roots             6
cis_singlets            true
cis_triplets            true
rpa                     false
calc_soc                true
cis_moments             true
cis_relaxed_density     true
solvent_method          pcm
$end

$molecule
read
$end

$pcm
statespecific           Marcus
$end

$solvent
dielectric      8.93
dielectric_infi 2.03
$end

--------------------------------------------------------------

             Standard Nuclear Orientation (Angstroms)
    I     Atom           X                Y                Z
 ----------------------------------------------------------------
    1      C       0.0000000000     0.0000000000     0.0000000000
    2      C       0.0000000000     0.0000000000     1.4038180000
    3      H       0.9486425282     0.0000000000     1.9309856118
    4      C      -1.1790940021    -0.0002160391     2.1063382580
    5      C      -1.2466383946     0.0013577398    -0.6898305022
    6      C      -2.4538357648     0.0026725235     0.0509603536
    7      H      -3.4107347503     0.0051261189    -0.4623090231
    8      C      -2.4298751666     0.0015127092     1.4235737493
    9      C      -1.4346870837    -0.0027181712     3.5398443519
   10      C      -0.6510292301    -0.0057963518     4.6670930415
   11      H       0.4305554067    -0.0065402813     4.6103179650
   12      C      -2.8351519006    -0.0021008547     3.6889677016
   13      C      -3.4820983180    -0.0041183296     4.9220560775
   14      C      -3.4887833492     0.0009405772     2.4390823747
   15      C      -4.8602133228     0.0027973064     2.4321009960
   16      H      -5.4276200127     0.0058144187     1.5097846328
   17      C      -1.2840345824    -0.0081543485     5.9306279730
   18      H      -0.6650621095    -0.0107777412     6.8189611320
   19      C      -2.6521457158    -0.0071891361     6.0702248615
   20      H      -3.0944900345    -0.0091184767     7.0589505723
   21      C      -4.8955422672    -0.0027070946     4.8805138804
   22      H      -5.4657295547    -0.0040227929     5.8015306875
   23      C      -5.5466644075     0.0006615970     3.6690288397
   24      H      -6.6290451733     0.0019082943     3.6577737469
   25      B      -1.2374780187    -0.0005559454    -2.2200388872
   26      C       0.0690222204     0.0021605163    -3.0151410932
   27      C       0.0856646315     0.0097245433    -4.4316181349
   28      H      -0.8467273953     0.0121569867    -4.9884807825
   29      C       1.2766631222     0.0166676176    -5.1162000959
   30      C       2.5038538265     0.0123703096    -4.3920424378
   31      C       2.5056775232     0.0030616260    -3.0188692000
   32      H       3.4438416827     0.0000456449    -2.4732086899
   33      C       1.3013864771    -0.0008937785    -2.2979095280
   34      C       3.6030396607     0.0224082808    -5.3444191803
   35      C       4.9715280142     0.0240777743    -5.2436832680
   36      H       5.4728704327     0.0151500979    -4.2836204169
   37      C       3.0152930723     0.0343333738    -6.6243276449
   38      C       3.7432269931     0.0493448481    -7.8096763855
   39      C       1.6070353045     0.0310919542    -6.5446982930
   40      C       0.8970540485     0.0434001718    -7.7174410777
   41      H      -0.1857647927     0.0422476846    -7.7307303490
   42      C       5.7336077564     0.0386167985    -6.4332536881
   43      H       6.8134835726     0.0402459654    -6.3557182324
   44      C       5.1541781133     0.0511595624    -7.6808923303
   45      H       5.7789709238     0.0626707754    -8.5655039562
   46      C       2.9822449572     0.0617676803    -9.0016904393
   47      H       3.4800928017     0.0740019939    -9.9634807681
   48      C       1.6080780075     0.0588205022    -8.9400701351
   49      H       1.0439528994     0.0689767896    -9.8637828299
   50      B       1.3351234189    -0.0049898145    -0.7608192521
   51      C      -2.5980768628    -0.0111918663    -2.9734850203
   52      C      -3.2413554799     1.2213018991    -3.3366171739
   53      C      -4.4213295542     1.1829241153    -4.0262839004
   54      H      -4.9130656130     2.1041765959    -4.3149825620
   55      C      -5.0245915718    -0.0460171904    -4.3777824958
   56      C      -4.4092235530    -1.2536807873    -4.0118646105
   57      H      -4.8845752880    -2.1876860495    -4.2839750950
   58      C      -3.2250230506    -1.2609025017    -3.3199271914
   59      C      -6.3055620590    -0.0406300614    -5.1289450950
   60      H      -6.6753736533    -1.0430731054    -5.3289315786
   61      H      -7.0719449956     0.5065728283    -4.5751820315
   62      H      -6.1854599225     0.4793331637    -6.0824536692
   63      C      -2.5576746905    -2.5294697992    -2.9174153124
   64      H      -3.1217542975    -3.4052416979    -3.2328380780
   65      H      -2.4283400399    -2.5653619358    -1.8341742827
   66      H      -1.5542007413    -2.5850954625    -3.3436245036
   67      C      -2.5903845371     2.5058978484    -2.9516834659
   68      H      -3.1709088633     3.3685364757    -3.2738031376
   69      H      -2.4566981767     2.5573700365    -1.8700081794
   70      H      -1.5918281978     2.5739075735    -3.3864940997
   71      C       2.7022137971    -0.0159994723     0.0285319693
   72      C       3.3235410249     1.1811167202     0.4038223872
   73      C       4.5149710579     1.1559860371     1.1217945370
   74      H       4.9815491085     2.0936970482     1.4061106652
   75      C       5.1193246643    -0.0393410921     1.4841828010
   76      C       4.4970862269    -1.2250941697     1.1107512755
   77      H       4.9505171543    -2.1720783442     1.3873698941
   78      C       3.3084382292    -1.2275704476     0.3940083437
   79      C       6.4123427833    -0.0628753899     2.2469923185
   80      H       6.7118159990     0.9366280506     2.5609431988
   81      H       6.3383257104    -0.6813881819     3.1430143257
   82      H       7.2237406040    -0.4725082639     1.6419594197
   83      C       2.6950901377     2.4962155890     0.0395119002
   84      H       3.3038255027     3.3393089927     0.3668714378
   85      H       2.5562994453     2.5842306472    -1.0398206606
   86      H       1.7082466005     2.6020973066     0.4951173853
   87      C       2.6624978920    -2.5311705858     0.0173829382
   88      H       3.2579832535    -3.3852402542     0.3409313378
   89      H       2.5266877043    -2.6103092186    -1.0630509462
   90      H       1.6724552947    -2.6271428329     0.4684410257
 ----------------------------------------------------------------

   15   -1973.7131123605      4.77e-09  Convergence criterion met
 Total energy in the final basis set =    -1973.7131123605

         TDDFT/TDA Excitation Energies
 ---------------------------------------------------

 Excited state   1: excitation energy (eV) =    2.2674
 Total energy for state  1:                 -1973.62978522 au
    Multiplicity: Triplet
    Trans. Mom.:  0.0000 X   0.0000 Y   0.0000 Z
    Strength   :     0.0000000000
    D(167) --> V(  2) amplitude = -0.2452
    D(171) --> V(  1) amplitude = -0.5157
    D(172) --> V(  1) amplitude =  0.6247
    D(173) --> V(  1) amplitude =  0.4282

 Excited state   2: excitation energy (eV) =    2.4006
 Total energy for state  2:                 -1973.62489307 au
    Multiplicity: Triplet
    Trans. Mom.:  0.0000 X   0.0000 Y   0.0000 Z
    Strength   :     0.0000000000
    D(174) --> V(  1) amplitude =  0.9660

 Excited state   3: excitation energy (eV) =    2.4421
 Total energy for state  3:                 -1973.62336821 au
    Multiplicity: Singlet
    Trans. Mom.:  0.0113 X  -0.0030 Y  -0.0060 Z
    Strength   :     0.0000103310
    D(174) --> V(  1) amplitude =  0.9731

 Excited state   4: excitation energy (eV) =    2.4541
 Total energy for state  4:                 -1973.62292575 au
    Multiplicity: Triplet
    Trans. Mom.:  0.0000 X   0.0000 Y   0.0000 Z
    Strength   :     0.0000000000
    D(170) --> V(  2) amplitude = -0.4774
    D(172) --> V(  1) amplitude = -0.4166
    D(173) --> V(  1) amplitude =  0.6811

 Excited state   5: excitation energy (eV) =    2.5077
 Total energy for state  5:                 -1973.62095663 au
    Multiplicity: Triplet
    Trans. Mom.:  0.0000 X   0.0000 Y   0.0000 Z
    Strength   :     0.0000000000
    D(170) --> V(  1) amplitude =  0.7394
    D(170) --> V(  4) amplitude =  0.2292
    D(173) --> V(  2) amplitude = -0.5214

 Excited state   6: excitation energy (eV) =    2.7652
 Total energy for state  6:                 -1973.61149320 au
    Multiplicity: Triplet
    Trans. Mom.:  0.0000 X   0.0000 Y   0.0000 Z
    Strength   :     0.0000000000
    D(167) --> V(  1) amplitude =  0.7040
    D(171) --> V(  2) amplitude =  0.3302
    D(172) --> V(  2) amplitude = -0.4308

 Excited state   7: excitation energy (eV) =    2.9419
 Total energy for state  7:                 -1973.60499781 au
    Multiplicity: Singlet
    Trans. Mom.: -0.1650 X  -0.0004 Y   0.2859 Z
    Strength   :     0.0078535437
    D(171) --> V(  1) amplitude = -0.4962
    D(172) --> V(  1) amplitude =  0.7107
    D(173) --> V(  1) amplitude =  0.4308

 Excited state   8: excitation energy (eV) =    3.1601
 Total energy for state  8:                 -1973.59698098 au
    Multiplicity: Singlet
    Trans. Mom.: -2.0191 X  -0.0151 Y   3.5511 Z
    Strength   :     1.2919338554
    D(172) --> V(  1) amplitude = -0.3943
    D(173) --> V(  1) amplitude =  0.8535

 Excited state   9: excitation energy (eV) =    3.2047
 Total energy for state  9:                 -1973.59534012 au
    Multiplicity: Triplet
    Trans. Mom.:  0.0000 X   0.0000 Y   0.0000 Z
    Strength   :     0.0000000000
    D(169) --> V(  1) amplitude =  0.9425

 Excited state  10: excitation energy (eV) =    3.2575
 Total energy for state 10:                 -1973.59340265 au
    Multiplicity: Singlet
    Trans. Mom.:  0.2040 X  -0.0004 Y  -0.3723 Z
    Strength   :     0.0143828288
    D(169) --> V(  1) amplitude =  0.5858
    D(171) --> V(  1) amplitude =  0.6573
    D(172) --> V(  1) amplitude =  0.4231

 Excited state  11: excitation energy (eV) =    3.2645
 Total energy for state 11:                 -1973.59314437 au
    Multiplicity: Singlet
    Trans. Mom.: -0.1141 X  -0.0061 Y   0.2105 Z
    Strength   :     0.0045866142
    D(169) --> V(  1) amplitude =  0.7680
    D(171) --> V(  1) amplitude = -0.5021
    D(172) --> V(  1) amplitude = -0.3224

 Excited state  12: excitation energy (eV) =    3.4673
 Total energy for state 12:                 -1973.58569272 au
    Multiplicity: Singlet
    Trans. Mom.: -0.1533 X  -0.0146 Y  -0.0523 Z
    Strength   :     0.0022470945
    D(170) --> V(  1) amplitude =  0.9386

 ---------------------------------------------------

                    Orbital Energies (a.u.)
 --------------------------------------------------------------

 Alpha MOs
 -- Occupied --
-10.472 -10.472 -10.471 -10.471 -10.471 -10.471 -10.470 -10.470
-10.470 -10.469 -10.469 -10.469 -10.468 -10.468 -10.467 -10.467
-10.466 -10.466 -10.464 -10.463 -10.462 -10.462 -10.461 -10.460
-10.460 -10.460 -10.458 -10.458 -10.456 -10.455 -10.455 -10.442
-10.442 -10.441 -10.441 -10.439 -10.439 -10.439 -10.438 -10.436
-10.432 -10.432 -10.432 -10.429 -10.417 -10.417 -10.417 -10.416
-10.412 -10.407  -6.954  -6.942  -1.023  -1.023  -0.970  -0.966
 -0.964  -0.940  -0.939  -0.939  -0.915  -0.906  -0.878  -0.877
 -0.863  -0.862  -0.862  -0.854  -0.852  -0.852  -0.830  -0.819
 -0.818  -0.811  -0.787  -0.768  -0.765  -0.765  -0.750  -0.745
 -0.741  -0.732  -0.730  -0.727  -0.695  -0.687  -0.685  -0.673
 -0.656  -0.651  -0.646  -0.645  -0.629  -0.622  -0.601  -0.595
 -0.595  -0.591  -0.588  -0.581  -0.581  -0.557  -0.549  -0.548
 -0.543  -0.532  -0.530  -0.529  -0.523  -0.513  -0.509  -0.503
 -0.500  -0.499  -0.495  -0.494  -0.493  -0.489  -0.486  -0.486
 -0.482  -0.474  -0.472  -0.471  -0.470  -0.469  -0.468  -0.462
 -0.460  -0.458  -0.456  -0.451  -0.451  -0.449  -0.447  -0.444
 -0.443  -0.440  -0.437  -0.431  -0.431  -0.430  -0.418  -0.415
 -0.403  -0.403  -0.402  -0.402  -0.398  -0.398  -0.397  -0.390
 -0.389  -0.387  -0.385  -0.377  -0.367  -0.362  -0.359  -0.358
 -0.353  -0.336  -0.328  -0.323  -0.303  -0.302  -0.290  -0.282
 -0.274  -0.269  -0.266  -0.265  -0.262  -0.242

          Ground-State Mulliken Net Atomic Charges

     Atom                 Charge (a.u.)
  ----------------------------------------
      1 C                    -0.152494
      2 C                    -0.398877
      3 H                     0.245425
      4 C                     0.072636
      5 C                    -0.157656
      6 C                    -0.399486
      7 H                     0.264580
      8 C                     0.094643
      9 C                     0.174879
     10 C                    -0.391973
     11 H                     0.252827
     12 C                    -0.073132
     13 C                     0.218184
     14 C                     0.181590
     15 C                    -0.398929
     16 H                     0.262234
     17 C                    -0.236603
     18 H                     0.260388
     19 C                    -0.347268
     20 H                     0.258135
     21 C                    -0.352188
     22 H                     0.258467
     23 C                    -0.232934
     24 H                     0.262627
     25 B                     0.681572
     26 C                    -0.156779
     27 C                    -0.400232
     28 H                     0.264066
     29 C                     0.095314
     30 C                     0.073629
     31 C                    -0.400431
     32 H                     0.244786
     33 C                    -0.151965
     34 C                     0.173936
     35 C                    -0.391042
     36 H                     0.253095
     37 C                    -0.072162
     38 C                     0.219964
     39 C                     0.179515
     40 C                    -0.398250
     41 H                     0.262287
     42 C                    -0.237010
     43 H                     0.260362
     44 C                    -0.347986
     45 H                     0.258206
     46 C                    -0.352645
     47 H                     0.258427
     48 C                    -0.232980
     49 H                     0.262788
     50 B                     0.675884
     51 C                    -0.251962
     52 C                     0.073153
     53 C                    -0.352714
     54 H                     0.229413
     55 C                     0.104275
     56 C                    -0.362771
     57 H                     0.231499
     58 C                     0.069617
     59 C                    -0.721819
     60 H                     0.239627
     61 H                     0.240006
     62 H                     0.239927
     63 C                    -0.772481
     64 H                     0.256792
     65 H                     0.240581
     66 H                     0.240567
     67 C                    -0.771561
     68 H                     0.256402
     69 H                     0.240170
     70 H                     0.240181
     71 C                    -0.223836
     72 C                     0.046256
     73 C                    -0.371279
     74 H                     0.229079
     75 C                     0.107198
     76 C                    -0.361781
     77 H                     0.227819
     78 C                     0.045602
     79 C                    -0.723171
     80 H                     0.239980
     81 H                     0.239910
     82 H                     0.241616
     83 C                    -0.770607
     84 H                     0.253585
     85 H                     0.244961
     86 H                     0.245024
     87 C                    -0.770395
     88 H                     0.253540
     89 H                     0.245068
     90 H                     0.245107
  ----------------------------------------
  Sum of atomic charges =    -0.000000

                    Cartesian Multipole Moments
 -----------------------------------------------------------------
    Charge (ESU x 10^10)
                -0.0000
    Dipole Moment (Debye)
         X      -1.2831      Y       0.0318      Z      -0.7527
       Tot       1.4879
    Quadrupole Moments (Debye-Ang)
        XX    -243.1314     XY      -0.6241     YY    -300.9530
        XZ      -3.6006     YZ      -0.9643     ZZ    -233.3561

 Total job time:  10612.22s(wall), 36010.67s(cpu)
        *  Thank you very much for using Q-Chem.  Have a nice day.  *
