 Q-Chem 5.1, Q-Chem, Inc., Pleasanton, CA (2018)
 Q-Chem 5.1.1 for Intel X86 EM64T Linux

User input:
--------------------------------------------------------------
$rem
threads 8
jobtype	sp
method PBEh-3c
basis def2-mSVP
mem_static	1024
mem_total	8000
sym_ignore	true
unrestricted true
scf_convergence	9
solvent_method	pcm
$end

$molecule
read incoords.mol
$end

$solvent
dielectric	1.0001
$end

$pcm
theory iefpcm
$end
--------------------------------------------------------------

   17   -1855.5181783602      4.11e-10  Convergence criterion met
 Total energy in the final basis set =    -1855.5181783602
 Total job time:  1351.90s(wall), 9963.44s(cpu)
        *  Thank you very much for using Q-Chem.  Have a nice day.  *
 Q-Chem 5.1, Q-Chem, Inc., Pleasanton, CA (2018)
 Q-Chem 5.1.1 for Intel X86 EM64T Linux

User input:
--------------------------------------------------------------

$rem
threads 8
jobtype opt
method PBEh-3c
basis def2-mSVP
scf_guess	read
mem_static      1024
mem_total       8000
sym_ignore      true
unrestricted true
mom_start       1
scf_algorithm	diis
scf_max_cycles	250
solvent_method	pcm
geom_opt_tol_energy 25
geom_opt_tol_gradient 75
$end

$solvent
dielectric      1.0001
$end

$pcm
theory iefpcm
$end

$occupied
1 2 3 4 5 6 7 8 9 10 11 12 13 14 15 16 17 18 19 20 21 22 23 24 25 26 27 28 29 30 31 32 33 34 35 36 37 38 39 40 41 42 43 44 45 46 47 48 49 50 51 52 53 54 55 56 57 58 59 60 61 62 63 64 65 66 67 68 69 70 71 72 73 74 75 76 77 78 79 80 81 82 83 84 85 86 87 88 89 90 91 92 93 94 95 96 97 98 99 100 101 102 103 104 105 106 107 108 109 110 111 112 113 114 115 116 117 118 119 120 121 122 123 124 125 126 127 128 129 130 131 132 133 134 135 136 137 138 139 140 141 142 143 144 145 146 147 148 149 150 151 152 153 154 155 156 158 159
1 2 3 4 5 6 7 8 9 10 11 12 13 14 15 16 17 18 19 20 21 22 23 24 25 26 27 28 29 30 31 32 33 34 35 36 37 38 39 40 41 42 43 44 45 46 47 48 49 50 51 52 53 54 55 56 57 58 59 60 61 62 63 64 65 66 67 68 69 70 71 72 73 74 75 76 77 78 79 80 81 82 83 84 85 86 87 88 89 90 91 92 93 94 95 96 97 98 99 100 101 102 103 104 105 106 107 108 109 110 111 112 113 114 115 116 117 118 119 120 121 122 123 124 125 126 127 128 129 130 131 132 133 134 135 136 137 138 139 140 141 142 143 144 145 146 147 148 149 150 151 152 153 154 155 156 157 158
$end

$molecule
read incoords.mol
$end

--------------------------------------------------------------

  111   -1855.3721675808      9.26E-09 Convergence criterion met
 Total energy in the final basis set = -1855.37216758
   36   -1855.3802378829      9.08E-09 Convergence criterion met
 Total energy in the final basis set = -1855.38023788
   30   -1855.3824719959      8.75E-09 Convergence criterion met
 Total energy in the final basis set = -1855.38247200
   38   -1855.3836544419      9.22E-09 Convergence criterion met
 Total energy in the final basis set = -1855.38365444
   26   -1855.3840482543      6.07E-09 Convergence criterion met
 Total energy in the final basis set = -1855.38404825
   22   -1855.3842176514      7.92E-09 Convergence criterion met
 Total energy in the final basis set = -1855.38421765
   23   -1855.3840666635      4.09E-09 Convergence criterion met
   17   -1855.3828917164      9.63E-09 Convergence criterion met
 Total energy in the final basis set = -1855.38289172
   17   -1855.3827272138      7.16E-09 Convergence criterion met
 Total energy in the final basis set = -1855.38272721
   16   -1855.3826810986      7.38E-09 Convergence criterion met
 Total energy in the final basis set = -1855.38268110
   15   -1855.3826466518      8.95E-09 Convergence criterion met
 Total energy in the final basis set = -1855.38264665
   15   -1855.3825612280      7.65E-09 Convergence criterion met
 Total energy in the final basis set = -1855.38256123
   14   -1855.3825802857      6.40E-09 Convergence criterion met
 Total energy in the final basis set = -1855.38258029

             Standard Nuclear Orientation (Angstroms)
    I     Atom           X                Y                Z
 ----------------------------------------------------------------
    1      N       0.2153325256     0.1018137378     0.1742721869
    2      C       0.2189778996     0.1013914933     1.5728277805
    3      C       1.4354812910     0.0248880348    -0.5092400336
    4      C      -0.7962866535     0.7382502556     2.2823459301
    5      H      -1.6105359315     1.2139852053     1.7518635644
    6      C      -0.7543025101     0.7782093833     3.6642189384
    7      H      -1.5468915691     1.2756973713     4.2075511440
    8      C       0.3078352468     0.2047053658     4.3437795981
    9      H       0.3545868367     0.2465388638     5.4235407702
   10      C       1.3090871510    -0.4374127054     3.6310830435
   11      H       2.1222169719    -0.8959204406     4.1768704027
   12      C       1.2715441426    -0.5247369171     2.2462269459
   13      C       1.5939255353     0.5463762697    -1.7916581369
   14      H       0.7629600951     0.9979752036    -2.3135316590
   15      C       2.8270949766     0.5016302872    -2.4166497953
   16      H       2.9293142557     0.9168090121    -3.4110378048
   17      C       3.9193552244    -0.0464542973    -1.7677679535
   18      H       4.8904546413    -0.0672963568    -2.2435155382
   19      C       3.7516952513    -0.5903590967    -0.5039705272
   20      H       4.6043146487    -1.0443161686    -0.0182726760
   21      C       2.5168632979    -0.5927131475     0.1306788909
   22      C      -1.0181320367     0.1372920449    -0.5183034719
   23      C      -1.4392220890     1.2486830936    -1.2277593679
   24      H      -0.8246440278     2.1413303164    -1.2211140461
   25      C      -1.8323272970    -0.9899778090    -0.5006356175
   26      H      -1.5275863855    -1.8639715309     0.0598904806
   27      C      -3.0261261656    -0.9860555738    -1.1893287922
   28      H      -3.6590677478    -1.8642875135    -1.1535705409
   29      C      -2.6180737605     1.2351658932    -1.9774734195
   30      C      -3.4368606650     0.1094459737    -1.9484138034
   31      C      -4.7779984693     0.0556107418    -2.6230022739
   32      H      -5.2619527171    -0.8852197264    -2.3570211859
   33      H      -4.6810469384     0.0485807713    -3.7123221145
   34      C       2.2431347255    -1.3454709422     1.4193749361
   35      C       3.5205235085    -1.6734241447     2.1844893264
   36      H       4.1802244230    -2.3030187742     1.5878685775
   37      H       3.2977238772    -2.2415039670     3.0872899870
   38      H       4.0692849844    -0.7756140650     2.4708256702
   39      C      -5.6700839495     1.2230487149    -2.1903154011
   40      H      -6.7213619320     0.9371217715    -2.2558952492
   41      H      -5.4837736985     1.4264124354    -1.1291019074
   42      C      -5.4515598497     2.4291773369    -3.0511714044
   43      C      -6.5126931546     3.1780002927    -3.4644201021
   44      H      -7.4951075100     2.9768421484    -3.0538638117
   45      C      -6.4046492873     4.1615279929    -4.4715870201
   46      C      -7.5114047207     4.9610451608    -4.8005659924
   47      N      -8.4348219285     5.6136395924    -5.0495494821
   48      C      -5.1783816122     4.2324469482    -5.2082960221
   49      C      -4.0898742973     3.5198062117    -4.7849164028
   50      H      -3.1775846037     3.5927312287    -5.3595609896
   51      C      -4.1280403306     2.7249621266    -3.5980815213
   52      C      -5.0720725088     5.0295494570    -6.3804724428
   53      N      -4.9660045684     5.6796642287    -7.3265603479
   54      C      -2.8441638148     2.4576149010    -2.8336817291
   55      C      -1.6320908685     2.7900772830    -3.6728206417
   56      C      -0.8921883058     1.9337606406    -4.4606253218
   57      H      -1.1170920137     0.8746719619    -4.4926265205
   58      C       0.1522097428     2.4613933168    -5.2105834023
   59      H       0.7488418681     1.8069279036    -5.8320281002
   60      C       0.4339427204     3.8268478138    -5.1778162794
   61      H       1.2484237748     4.2163960317    -5.7733338741
   62      C      -0.3157269197     4.6882436980    -4.3967349801
   63      H      -0.0939191564     5.7473925751    -4.3827197418
   64      C      -1.3549695383     4.1635154833    -3.6331256834
   65      C      -2.3157295185     4.8004737189    -2.7701486991
   66      C      -2.5475872119     6.1227170070    -2.4562192658
   67      H      -1.9764501478     6.9144515486    -2.9227005299
   68      C      -3.5273325802     6.4240789385    -1.5194794276
   69      H      -3.7321136187     7.4567960153    -1.2739065447
   70      C      -4.2327973511     5.4056761453    -0.8430813941
   71      H      -4.9370450712     5.6816898817    -0.0700526936
   72      C      -4.0378821735     4.0851014690    -1.1407372882
   73      H      -4.5587214281     3.3077062005    -0.6004729570
   74      C      -3.1269258518     3.7667651300    -2.1778461811
   75      C       1.5593709438    -2.6793940953     1.0498169885
   76      H       2.2273819287    -3.2918770090     0.4418639132
   77      H       1.3010280809    -3.2389660139     1.9505307465
   78      H       0.6447974863    -2.5286564877     0.4771144483
 ----------------------------------------------------------------

   13   -1855.3825760574      5.79E-09 Convergence criterion met
 Total energy in the final basis set = -1855.38257606
 Final energy is   -1855.38257605736
 **  OPTIMIZATION CONVERGED  **

                    Orbital Energies (a.u.)
 --------------------------------------------------------------

 Alpha MOs
 -- Occupied --
-14.682 -14.634 -14.630 -10.517 -10.516 -10.506 -10.506 -10.498
-10.498 -10.495 -10.494 -10.492 -10.489 -10.488 -10.487 -10.486
-10.485 -10.484 -10.484 -10.482 -10.482 -10.482 -10.481 -10.480
-10.479 -10.479 -10.477 -10.474 -10.474 -10.472 -10.471 -10.468
-10.468 -10.468 -10.466 -10.456 -10.456 -10.449 -10.449 -10.448
-10.448 -10.448 -10.446 -10.443 -10.442 -10.435 -10.433  -1.095
 -1.055  -1.012  -0.997  -0.995  -0.985  -0.978  -0.964  -0.963
 -0.947  -0.926  -0.916  -0.907  -0.886  -0.878  -0.868  -0.866
 -0.853  -0.846  -0.840  -0.835  -0.825  -0.813  -0.796  -0.778
 -0.768  -0.752  -0.729  -0.725  -0.719  -0.713  -0.707  -0.694
 -0.693  -0.684  -0.681  -0.677  -0.661  -0.639  -0.625  -0.620
 -0.617  -0.616  -0.599  -0.586  -0.579  -0.575  -0.572  -0.560
 -0.549  -0.545  -0.542  -0.539  -0.536  -0.529  -0.526  -0.526
 -0.522  -0.519  -0.518  -0.512  -0.508  -0.505  -0.501  -0.497
 -0.495  -0.494  -0.488  -0.477  -0.475  -0.463  -0.459  -0.456
 -0.452  -0.448  -0.446  -0.443  -0.441  -0.434  -0.433  -0.431
 -0.429  -0.427  -0.424  -0.422  -0.419  -0.417  -0.414  -0.410
 -0.409  -0.407  -0.404  -0.402  -0.386  -0.380  -0.379  -0.375
 -0.371  -0.365  -0.362  -0.334  -0.324  -0.315  -0.312  -0.308
 -0.296  -0.293  -0.287  -0.286  -0.236  -0.151

 Beta MOs
 -- Occupied --
-14.682 -14.633 -14.629 -10.518 -10.518 -10.506 -10.502 -10.499
-10.495 -10.495 -10.494 -10.491 -10.489 -10.488 -10.487 -10.487
-10.487 -10.485 -10.485 -10.482 -10.482 -10.482 -10.481 -10.481
-10.480 -10.478 -10.477 -10.475 -10.474 -10.471 -10.471 -10.468
-10.468 -10.468 -10.466 -10.456 -10.456 -10.449 -10.449 -10.448
-10.448 -10.448 -10.446 -10.443 -10.442 -10.435 -10.433  -1.095
 -1.057  -1.011  -0.996  -0.994  -0.986  -0.979  -0.964  -0.963
 -0.947  -0.925  -0.916  -0.907  -0.885  -0.878  -0.869  -0.866
 -0.853  -0.846  -0.840  -0.839  -0.825  -0.813  -0.797  -0.778
 -0.767  -0.753  -0.728  -0.725  -0.719  -0.714  -0.707  -0.694
 -0.693  -0.685  -0.682  -0.677  -0.661  -0.639  -0.625  -0.620
 -0.617  -0.616  -0.599  -0.585  -0.578  -0.575  -0.572  -0.560
 -0.549  -0.545  -0.542  -0.540  -0.536  -0.530  -0.526  -0.526
 -0.523  -0.520  -0.518  -0.512  -0.508  -0.506  -0.502  -0.497
 -0.495  -0.494  -0.489  -0.477  -0.475  -0.465  -0.460  -0.455
 -0.452  -0.448  -0.447  -0.444  -0.443  -0.434  -0.433  -0.431
 -0.429  -0.427  -0.424  -0.422  -0.418  -0.416  -0.413  -0.409
 -0.408  -0.404  -0.402  -0.401  -0.386  -0.382  -0.379  -0.377
 -0.371  -0.367  -0.363  -0.337  -0.325  -0.313  -0.312  -0.307
 -0.295  -0.293  -0.290  -0.286  -0.262  -0.236

          Ground-State Mulliken Net Atomic Charges

     Atom                 Charge (a.u.)    Spin (a.u.)
  --------------------------------------------------------
      1 N                    -0.724037      -0.000135
      2 C                     0.303359       0.000061
      3 C                     0.310717       0.000049
      4 C                    -0.274368      -0.000134
      5 H                     0.234385       0.000039
      6 C                    -0.237643       0.000096
      7 H                     0.217068      -0.000006
      8 C                    -0.215430      -0.000168
      9 H                     0.215142       0.000010
     10 C                    -0.329441       0.000094
     11 H                     0.214553      -0.000004
     12 C                     0.168741      -0.000130
     13 C                    -0.288562      -0.000047
     14 H                     0.256740       0.000023
     15 C                    -0.237495      -0.000019
     16 H                     0.212027       0.000021
     17 C                    -0.217131      -0.000051
     18 H                     0.213740       0.000003
     19 C                    -0.325603       0.000032
     20 H                     0.214723      -0.000004
     21 C                     0.160131      -0.000065
     22 C                     0.272453      -0.001432
     23 C                    -0.345709       0.001040
     24 H                     0.261884      -0.000060
     25 C                    -0.224163       0.000482
     26 H                     0.238882       0.000004
     27 C                    -0.296107      -0.001995
     28 H                     0.222018       0.000331
     29 C                     0.166810       0.008712
     30 C                     0.082598       0.001484
     31 C                    -0.532365       0.001826
     32 H                     0.248536      -0.002401
     33 H                     0.258396      -0.000280
     34 C                    -0.225814       0.000017
     35 C                    -0.664180      -0.000001
     36 H                     0.228437       0.000000
     37 H                     0.228576       0.000000
     38 H                     0.240490      -0.000000
     39 C                    -0.512619       0.006498
     40 H                     0.254086       0.000180
     41 H                     0.239844      -0.000798
     42 C                     0.148713      -0.053310
     43 C                    -0.296430       0.058437
     44 H                     0.235172       0.000445
     45 C                     0.028905       0.050604
     46 C                    -0.017930      -0.004780
     47 N                    -0.185498       0.030872
     48 C                     0.072657       0.156789
     49 C                    -0.262020      -0.211262
     50 H                     0.274283       0.016118
     51 C                     0.059303       0.204230
     52 C                    -0.015807      -0.044198
     53 N                    -0.176834       0.066365
     54 C                    -0.340881      -0.019137
     55 C                     0.070161      -0.044723
     56 C                    -0.273316       0.028427
     57 H                     0.245224      -0.001328
     58 C                    -0.235679      -0.051249
     59 H                     0.237756       0.002728
     60 C                    -0.209091       0.029851
     61 H                     0.237600      -0.001370
     62 C                    -0.320665      -0.041156
     63 H                     0.222754       0.002499
     64 C                     0.160751       0.038625
     65 C                     0.186646      -0.096760
     66 C                    -0.310535       0.060033
     67 H                     0.224136      -0.002789
     68 C                    -0.212172      -0.104910
     69 H                     0.246083       0.005056
     70 C                    -0.210006      -0.004995
     71 H                     0.240161       0.000818
     72 C                    -0.221522       0.039180
     73 H                     0.239859      -0.001286
     74 C                     0.067851      -0.121083
     75 C                    -0.601156      -0.000012
     76 H                     0.224743      -0.000000
     77 H                     0.221508      -0.000000
     78 H                     0.231608       0.000001
  --------------------------------------------------------
  Sum of atomic charges =    -0.000000

                    Cartesian Multipole Moments
 -----------------------------------------------------------------
    Charge (ESU x 10^10)
                -0.0000
    Dipole Moment (Debye)
         X       6.0204      Y      -5.0830      Z       6.3273
       Tot      10.1053
    Quadrupole Moments (Debye-Ang)
        XX    -320.5348     XY      54.7639     YY    -291.8751
        XZ     -70.9355     YZ      49.6404     ZZ    -320.7313

 Total job time:  28273.84s(wall), 124808.50s(cpu)
        *  Thank you very much for using Q-Chem.  Have a nice day.  *
