 Q-Chem 5.1, Q-Chem, Inc., Pleasanton, CA (2018)
 Q-Chem 5.1.1 for Intel X86 EM64T Linux

User input:
--------------------------------------------------------------
$rem
threads 8
jobtype	sp
method PBEh-3c
basis def2-mSVP
mem_static	1024
mem_total	8000
sym_ignore	true
unrestricted true
scf_convergence	9
solvent_method	pcm
$end

$molecule
read incoords.mol
$end

$solvent
dielectric	2.38
$end

$pcm
theory iefpcm
$end
--------------------------------------------------------------

   17   -1855.5328057281      2.69e-10  Convergence criterion met
 Total energy in the final basis set =    -1855.5328057281
 Total job time:  1686.60s(wall), 11782.07s(cpu)
        *  Thank you very much for using Q-Chem.  Have a nice day.  *
 Q-Chem 5.1, Q-Chem, Inc., Pleasanton, CA (2018)
 Q-Chem 5.1.1 for Intel X86 EM64T Linux

User input:
--------------------------------------------------------------

$rem
threads 8
jobtype opt
method PBEh-3c
basis def2-mSVP
scf_guess	read
mem_static      1024
mem_total       8000
sym_ignore      true
unrestricted true
mom_start       1
scf_algorithm	diis
scf_max_cycles	250
solvent_method	pcm
geom_opt_tol_energy 25
geom_opt_tol_gradient 75
$end

$solvent
dielectric      2.38
$end

$pcm
theory iefpcm
$end

$occupied
1 2 3 4 5 6 7 8 9 10 11 12 13 14 15 16 17 18 19 20 21 22 23 24 25 26 27 28 29 30 31 32 33 34 35 36 37 38 39 40 41 42 43 44 45 46 47 48 49 50 51 52 53 54 55 56 57 58 59 60 61 62 63 64 65 66 67 68 69 70 71 72 73 74 75 76 77 78 79 80 81 82 83 84 85 86 87 88 89 90 91 92 93 94 95 96 97 98 99 100 101 102 103 104 105 106 107 108 109 110 111 112 113 114 115 116 117 118 119 120 121 122 123 124 125 126 127 128 129 130 131 132 133 134 135 136 137 138 139 140 141 142 143 144 145 146 147 148 149 150 151 152 153 154 155 156 158 159
1 2 3 4 5 6 7 8 9 10 11 12 13 14 15 16 17 18 19 20 21 22 23 24 25 26 27 28 29 30 31 32 33 34 35 36 37 38 39 40 41 42 43 44 45 46 47 48 49 50 51 52 53 54 55 56 57 58 59 60 61 62 63 64 65 66 67 68 69 70 71 72 73 74 75 76 77 78 79 80 81 82 83 84 85 86 87 88 89 90 91 92 93 94 95 96 97 98 99 100 101 102 103 104 105 106 107 108 109 110 111 112 113 114 115 116 117 118 119 120 121 122 123 124 125 126 127 128 129 130 131 132 133 134 135 136 137 138 139 140 141 142 143 144 145 146 147 148 149 150 151 152 153 154 155 156 157 158
$end

$molecule
read incoords.mol
$end

--------------------------------------------------------------

   22   -1855.4097314621      8.88E-09 Convergence criterion met
 Total energy in the final basis set = -1855.40973146
   24   -1855.4104766469      8.45E-09 Convergence criterion met
 Total energy in the final basis set = -1855.41047665
   23   -1855.4109548673      8.25E-09 Convergence criterion met
 Total energy in the final basis set = -1855.41095487
   21   -1855.4109937379      8.69E-09 Convergence criterion met
 Total energy in the final basis set = -1855.41099374
   23   -1855.4110988477      6.09E-09 Convergence criterion met
 Total energy in the final basis set = -1855.41109885
   19   -1855.4111349773      7.87E-09 Convergence criterion met
 Total energy in the final basis set = -1855.41113498
   19   -1855.4111441481      7.03E-09 Convergence criterion met
 Total energy in the final basis set = -1855.41114415
   19   -1855.4111460927      6.44E-09 Convergence criterion met
 Total energy in the final basis set = -1855.41114609
   18   -1855.4111473762      9.56E-09 Convergence criterion met
 Total energy in the final basis set = -1855.41114738

             Standard Nuclear Orientation (Angstroms)
    I     Atom           X                Y                Z
 ----------------------------------------------------------------
    1      N       0.0494705151    -0.3774063613    -0.0046931126
    2      C       0.0699999450    -0.3409983359     1.3950022729
    3      C       1.2335324200    -0.5955859643     2.1204670007
    4      H       2.1501551408    -0.8690339455     1.6162935992
    5      C       1.2287965034    -0.4888117811     3.5012949722
    6      H       2.1405082474    -0.6878291865     4.0500180865
    7      C       0.0746992665    -0.1190562253     4.1703828213
    8      H       0.0688467987    -0.0200472749     5.2475427006
    9      C      -1.0873266737     0.1033425837     3.4454477405
   10      H      -1.9896535407     0.3663816490     3.9803898665
   11      C      -1.1209806111    -0.0269010254     2.0640746802
   12      C      -0.8623555996     0.4344758399    -0.6870925184
   13      C      -0.5927384625     0.9131538356    -1.9693498656
   14      H       0.3202548869     0.6380216810    -2.4782389035
   15      C      -1.4955551790     1.7503773667    -2.6036119623
   16      H      -1.2731366629     2.1116914662    -3.5993233126
   17      C      -2.6639720433     2.1297894485    -1.9654481627
   18      H      -3.3672179710     2.7927876765    -2.4514281285
   19      C      -2.9381526158     1.6308009933    -0.7001958329
   20      H      -3.8669357499     1.9108462152    -0.2224100659
   21      C      -2.0672267759     0.7638505763    -0.0545997724
   22      C       1.1742089981    -0.8695061316    -0.7115671075
   23      C       2.3103255852    -0.0953744615    -0.8401298789
   24      H       2.2891442211     0.8840195744    -0.3792329007
   25      C       1.1427300201    -2.1249037648    -1.2933210865
   26      H       0.2593734712    -2.7440959148    -1.2048945856
   27      C       2.2466152668    -2.5600351708    -2.0054296458
   28      H       2.2090807948    -3.5280807763    -2.4898122582
   29      C       3.4089901493    -1.7989126228    -2.1321268820
   30      C       3.4505827199    -0.5474935947    -1.5102930600
   31      C       4.5135345103    -2.3318586844    -2.9974820408
   32      H       4.1211840912    -3.1816972672    -3.5585113955
   33      H       5.3366070493    -2.7210024873    -2.3919202822
   34      C      -2.3981039342     0.0555584254     1.2444971480
   35      C      -3.5349926599     0.7333286682     2.0014446206
   36      H      -4.4440762572     0.7485544865     1.4008013972
   37      H      -3.7824145878     0.1794442556     2.9064744516
   38      H      -3.2912338696     1.7590844377     2.2803613062
   39      C       5.0517341656    -1.2744368107    -3.9662197493
   40      H       5.4395398413    -1.7638800489    -4.8609897251
   41      H       4.2137970718    -0.6541988689    -4.3083589249
   42      C       6.1507527093    -0.4725322831    -3.3420210190
   43      C       7.3651303604    -0.3976217166    -3.9677365863
   44      H       7.4700949072    -0.8433517490    -4.9506081203
   45      C       8.5069981117     0.1977600495    -3.3905089294
   46      C       9.7070498319     0.2675012983    -4.1057949624
   47      N      10.6976645253     0.3163894829    -4.7111427925
   48      C       8.3754258067     0.7006894076    -2.0471509241
   49      C       7.1312646117     0.6463463114    -1.4298665883
   50      H       7.0642190299     1.0904031880    -0.4435843300
   51      C       6.0067848792     0.0860179738    -2.0208946481
   52      C       9.4587657321     1.2684396034    -1.3494151849
   53      N      10.3369498072     1.7461483150    -0.7638316354
   54      C       4.6603879157     0.3818240010    -1.3743913328
   55      C       4.2933824332     1.7833006662    -1.7962849034
   56      C       3.9761809889     2.2459942931    -3.0606759209
   57      H       3.9463724078     1.5783952011    -3.9108114571
   58      C       3.7078912893     3.5937245516    -3.2106781094
   59      H       3.4641048598     3.9803879114    -4.1914595704
   60      C       3.7433027672     4.4925817308    -2.1160806787
   61      H       3.5290660824     5.5378213300    -2.2890289217
   62      C       4.0392496656     4.0479945623    -0.8554174607
   63      H       4.0586181902     4.7276800365    -0.0143737304
   64      C       4.3101490464     2.6803118802    -0.6843027648
   65      C       4.5854316264     1.9340615060     0.4854054952
   66      C       4.6315857135     2.3249380770     1.8344753068
   67      H       4.4519384543     3.3517408595     2.1225857332
   68      C       4.8978377776     1.3642693571     2.7731946284
   69      H       4.9339540923     1.6273352860     3.8211132918
   70      C       5.1307360722     0.0231211190     2.3947934164
   71      H       5.3494795648    -0.7053459464     3.1643194467
   72      C       5.0873718142    -0.3763965395     1.0700510165
   73      H       5.2632385308    -1.4062213257     0.7887274699
   74      C       4.8132173348     0.5809837174     0.1164374375
   75      C      -2.8480372725    -1.3803516885     0.8991968673
   76      H      -2.0818556011    -1.9288657686     0.3516539130
   77      H      -3.7467325513    -1.3551832116     0.2800632576
   78      H      -3.0735279454    -1.9373594691     1.8101141257
 ----------------------------------------------------------------

   18   -1855.4111504398      9.50E-09 Convergence criterion met
 Total energy in the final basis set = -1855.41115044
 Final energy is   -1855.41115043975
 **  OPTIMIZATION CONVERGED  **

                    Orbital Energies (a.u.)
 --------------------------------------------------------------

 Alpha MOs
 -- Occupied --
-14.687 -14.612 -14.605 -10.520 -10.520 -10.518 -10.517 -10.514
-10.506 -10.505 -10.503 -10.501 -10.500 -10.499 -10.498 -10.498
-10.495 -10.492 -10.491 -10.489 -10.480 -10.475 -10.473 -10.469
-10.466 -10.462 -10.460 -10.459 -10.457 -10.456 -10.455 -10.454
-10.453 -10.452 -10.452 -10.451 -10.451 -10.451 -10.450 -10.449
-10.446 -10.445 -10.445 -10.444 -10.443 -10.433 -10.430  -1.100
 -1.058  -0.997  -0.996  -0.989  -0.975  -0.971  -0.966  -0.957
 -0.945  -0.920  -0.918  -0.907  -0.889  -0.872  -0.869  -0.859
 -0.857  -0.845  -0.842  -0.833  -0.827  -0.810  -0.792  -0.776
 -0.764  -0.755  -0.731  -0.725  -0.711  -0.709  -0.708  -0.697
 -0.690  -0.688  -0.680  -0.673  -0.656  -0.632  -0.626  -0.620
 -0.617  -0.608  -0.605  -0.594  -0.579  -0.567  -0.563  -0.558
 -0.548  -0.546  -0.544  -0.540  -0.537  -0.533  -0.528  -0.528
 -0.523  -0.515  -0.514  -0.509  -0.507  -0.499  -0.499  -0.497
 -0.492  -0.486  -0.483  -0.471  -0.466  -0.465  -0.461  -0.452
 -0.452  -0.447  -0.446  -0.445  -0.443  -0.443  -0.434  -0.434
 -0.428  -0.425  -0.424  -0.422  -0.410  -0.408  -0.407  -0.403
 -0.401  -0.394  -0.393  -0.389  -0.386  -0.380  -0.372  -0.368
 -0.364  -0.360  -0.351  -0.345  -0.333  -0.310  -0.306  -0.300
 -0.297  -0.294  -0.290  -0.281  -0.240  -0.130

 Beta MOs
 -- Occupied --
-14.687 -14.609 -14.600 -10.522 -10.521 -10.521 -10.520 -10.514
-10.510 -10.509 -10.503 -10.501 -10.500 -10.499 -10.499 -10.498
-10.495 -10.491 -10.490 -10.486 -10.480 -10.475 -10.473 -10.469
-10.466 -10.463 -10.460 -10.459 -10.458 -10.456 -10.454 -10.453
-10.452 -10.452 -10.451 -10.451 -10.451 -10.450 -10.449 -10.447
-10.446 -10.446 -10.444 -10.444 -10.442 -10.433 -10.430  -1.100
 -1.064  -1.002  -0.997  -0.985  -0.971  -0.968  -0.966  -0.956
 -0.945  -0.923  -0.918  -0.906  -0.890  -0.873  -0.866  -0.858
 -0.857  -0.854  -0.842  -0.831  -0.827  -0.808  -0.790  -0.776
 -0.768  -0.751  -0.732  -0.725  -0.712  -0.711  -0.707  -0.700
 -0.690  -0.688  -0.680  -0.673  -0.656  -0.632  -0.626  -0.620
 -0.617  -0.609  -0.606  -0.594  -0.579  -0.567  -0.563  -0.558
 -0.549  -0.546  -0.544  -0.540  -0.537  -0.534  -0.530  -0.528
 -0.525  -0.518  -0.513  -0.509  -0.507  -0.499  -0.499  -0.497
 -0.493  -0.488  -0.483  -0.476  -0.470  -0.466  -0.461  -0.455
 -0.453  -0.451  -0.447  -0.444  -0.444  -0.439  -0.434  -0.431
 -0.426  -0.424  -0.423  -0.422  -0.410  -0.407  -0.404  -0.401
 -0.400  -0.390  -0.389  -0.388  -0.385  -0.380  -0.377  -0.371
 -0.364  -0.358  -0.349  -0.344  -0.338  -0.320  -0.307  -0.306
 -0.297  -0.297  -0.290  -0.282  -0.248  -0.240

          Ground-State Mulliken Net Atomic Charges

     Atom                 Charge (a.u.)    Spin (a.u.)
  --------------------------------------------------------
      1 N                    -0.699921      -0.000575
      2 C                     0.310697       0.000283
      3 C                    -0.302583      -0.000520
      4 H                     0.257750       0.000068
      5 C                    -0.250061      -0.000262
      6 H                     0.223602       0.000063
      7 C                    -0.235047       0.000091
      8 H                     0.229036      -0.000012
      9 C                    -0.337016      -0.000105
     10 H                     0.231377       0.000003
     11 C                     0.152396       0.000051
     12 C                     0.310181       0.000125
     13 C                    -0.300042       0.000022
     14 H                     0.252810       0.000016
     15 C                    -0.250325      -0.000128
     16 H                     0.231352       0.000006
     17 C                    -0.235704       0.000117
     18 H                     0.229387      -0.000010
     19 C                    -0.335781      -0.000111
     20 H                     0.230247       0.000009
     21 C                     0.155437       0.000089
     22 C                     0.202258       0.012256
     23 C                    -0.282187      -0.019348
     24 H                     0.271901       0.000762
     25 C                    -0.240133      -0.024206
     26 H                     0.252006       0.001368
     27 C                    -0.314323      -0.005609
     28 H                     0.243934       0.000621
     29 C                     0.068334       0.001030
     30 C                     0.219805      -0.014620
     31 C                    -0.513662       0.007813
     32 H                     0.249034      -0.001148
     33 H                     0.261651      -0.000828
     34 C                    -0.223111      -0.000006
     35 C                    -0.673046       0.000002
     36 H                     0.236665      -0.000002
     37 H                     0.236280      -0.000001
     38 H                     0.239512       0.000000
     39 C                    -0.542036      -0.014378
     40 H                     0.256208       0.000535
     41 H                     0.225698       0.012220
     42 C                     0.097147       0.167417
     43 C                    -0.332732      -0.086591
     44 H                     0.228540       0.003686
     45 C                    -0.003086       0.318866
     46 C                    -0.046678      -0.088918
     47 N                    -0.266529       0.186916
     48 C                     0.014176       0.213701
     49 C                    -0.297669      -0.156437
     50 H                     0.236680       0.009622
     51 C                     0.119810       0.229280
     52 C                    -0.038429      -0.061165
     53 N                    -0.256726       0.124840
     54 C                    -0.412777       0.031179
     55 C                     0.202198      -0.220740
     56 C                    -0.268431       0.164183
     57 H                     0.268066      -0.007422
     58 C                    -0.193900      -0.265122
     59 H                     0.278926       0.014292
     60 C                    -0.216992       0.037773
     61 H                     0.274040      -0.001284
     62 C                    -0.291620      -0.044775
     63 H                     0.256429       0.004063
     64 C                     0.142973      -0.099581
     65 C                     0.175093      -0.082517
     66 C                    -0.298518      -0.045764
     67 H                     0.258287       0.003919
     68 C                    -0.205859       0.022795
     69 H                     0.275034      -0.000146
     70 C                    -0.213228      -0.238696
     71 H                     0.279637       0.012919
     72 C                    -0.240027       0.136415
     73 H                     0.275220      -0.005325
     74 C                     0.074816      -0.233075
     75 C                    -0.605335       0.000007
     76 H                     0.235757      -0.000001
     77 H                     0.226684       0.000000
     78 H                     0.226443       0.000000
  --------------------------------------------------------
  Sum of atomic charges =    -0.000000

                    Cartesian Multipole Moments
 -----------------------------------------------------------------
    Charge (ESU x 10^10)
                -0.0000
    Dipole Moment (Debye)
         X     -20.7398      Y       2.0241      Z       7.7105
       Tot      22.2191
    Quadrupole Moments (Debye-Ang)
        XX    -569.2416     XY     -17.7504     YY    -235.0453
        XZ      95.3691     YZ       1.7546     ZZ    -265.4862

 Total job time:  16544.24s(wall), 66486.95s(cpu)
        *  Thank you very much for using Q-Chem.  Have a nice day.  *
