 Q-Chem 5.1, Q-Chem, Inc., Pleasanton, CA (2018)
 Q-Chem 5.1.1 for Intel X86 EM64T Linux

User input:
--------------------------------------------------------------
$rem
threads 8
jobtype	sp
method PBEh-3c
basis def2-mSVP
mem_static	1024
mem_total	8000
sym_ignore	true
unrestricted true
scf_convergence	9
solvent_method	pcm
$end

$molecule
read incoords.mol
$end

$solvent
dielectric	4.33
$end

$pcm
theory iefpcm
$end
--------------------------------------------------------------

   16   -1855.5410045312      8.74e-10  Convergence criterion met
 Total energy in the final basis set =    -1855.5410045312
 Total job time:  1592.94s(wall), 11158.09s(cpu)
        *  Thank you very much for using Q-Chem.  Have a nice day.  *
 Q-Chem 5.1, Q-Chem, Inc., Pleasanton, CA (2018)
 Q-Chem 5.1.1 for Intel X86 EM64T Linux

User input:
--------------------------------------------------------------

$rem
threads 8
jobtype opt
method PBEh-3c
basis def2-mSVP
scf_guess	read
mem_static      1024
mem_total       8000
sym_ignore      true
unrestricted true
mom_start       1
scf_algorithm	diis
scf_max_cycles	250
solvent_method	pcm
geom_opt_tol_energy 25
geom_opt_tol_gradient 75
$end

$solvent
dielectric      4.33
$end

$pcm
theory iefpcm
$end

$occupied
1 2 3 4 5 6 7 8 9 10 11 12 13 14 15 16 17 18 19 20 21 22 23 24 25 26 27 28 29 30 31 32 33 34 35 36 37 38 39 40 41 42 43 44 45 46 47 48 49 50 51 52 53 54 55 56 57 58 59 60 61 62 63 64 65 66 67 68 69 70 71 72 73 74 75 76 77 78 79 80 81 82 83 84 85 86 87 88 89 90 91 92 93 94 95 96 97 98 99 100 101 102 103 104 105 106 107 108 109 110 111 112 113 114 115 116 117 118 119 120 121 122 123 124 125 126 127 128 129 130 131 132 133 134 135 136 137 138 139 140 141 142 143 144 145 146 147 148 149 150 151 152 153 154 155 156 158 159
1 2 3 4 5 6 7 8 9 10 11 12 13 14 15 16 17 18 19 20 21 22 23 24 25 26 27 28 29 30 31 32 33 34 35 36 37 38 39 40 41 42 43 44 45 46 47 48 49 50 51 52 53 54 55 56 57 58 59 60 61 62 63 64 65 66 67 68 69 70 71 72 73 74 75 76 77 78 79 80 81 82 83 84 85 86 87 88 89 90 91 92 93 94 95 96 97 98 99 100 101 102 103 104 105 106 107 108 109 110 111 112 113 114 115 116 117 118 119 120 121 122 123 124 125 126 127 128 129 130 131 132 133 134 135 136 137 138 139 140 141 142 143 144 145 146 147 148 149 150 151 152 153 154 155 156 157 158
$end

$molecule
read incoords.mol
$end

--------------------------------------------------------------

   27   -1855.4130104231      5.34E-09 Convergence criterion met
 Total energy in the final basis set = -1855.41301042
   60   -1855.4222246447      3.43E-09 Convergence criterion met
 Total energy in the final basis set = -1855.42222464
   31   -1855.4234780292      8.25E-09 Convergence criterion met
 Total energy in the final basis set = -1855.42347803
   21   -1855.4238720362      9.65E-09 Convergence criterion met
 Total energy in the final basis set = -1855.42387204
   19   -1855.4235063462      9.25E-09 Convergence criterion met
 Total energy in the final basis set = -1855.42350635
   19   -1855.4236268883      8.90E-09 Convergence criterion met
 Total energy in the final basis set = -1855.42362689
   19   -1855.4235348934      8.36E-09 Convergence criterion met
 Total energy in the final basis set = -1855.42353489
   19   -1855.4233273225      8.97E-09 Convergence criterion met
 Total energy in the final basis set = -1855.42332732
   18   -1855.4233300851      9.83E-09 Convergence criterion met
 Total energy in the final basis set = -1855.42333009
   18   -1855.4232998239      9.66E-09 Convergence criterion met
 Total energy in the final basis set = -1855.42329982
   18   -1855.4232661021      9.43E-09 Convergence criterion met
 Total energy in the final basis set = -1855.42326610
   19   -1855.4232729589      7.00E-09 Convergence criterion met
 Total energy in the final basis set = -1855.42327296

             Standard Nuclear Orientation (Angstroms)
    I     Atom           X                Y                Z
 ----------------------------------------------------------------
    1      N       0.1186288203     0.1372249304     0.0764423188
    2      C       0.1436878455     0.1755807165     1.4736504942
    3      C       1.3262654154     0.1021102487    -0.6267410127
    4      C      -0.8957171068     0.7711810847     2.1864082491
    5      H      -1.7486824652     1.1828669014     1.6628564591
    6      C      -0.8320574405     0.8514485827     3.5669207977
    7      H      -1.6447724392     1.3150295562     4.1110407269
    8      C       0.2737398771     0.3590871820     4.2422641157
    9      H       0.3358796248     0.4311657862     5.3199093750
   10      C       1.2984037248    -0.2445308881     3.5269734925
   11      H       2.1447721156    -0.6441436366     4.0689956504
   12      C       1.2422679996    -0.3713081642     2.1450934547
   13      C       1.4313151924     0.5847473297    -1.9314062514
   14      H       0.5630219507     0.9609031678    -2.4536334675
   15      C       2.6553877386     0.5918605275    -2.5779818412
   16      H       2.7163942590     0.9722204042    -3.5899243817
   17      C       3.7903779303     0.1329142348    -1.9304260012
   18      H       4.7529807345     0.1513760824    -2.4237413324
   19      C       3.6756979859    -0.3781161347    -0.6457359714
   20      H       4.5611324122    -0.7678034561    -0.1626120405
   21      C       2.4536403766    -0.4315030283     0.0119592700
   22      C      -1.1263875403     0.1580604595    -0.5993684800
   23      C      -1.5932823238     1.2893078431    -1.2444475602
   24      H      -0.9877375310     2.1859759271    -1.1932093593
   25      C      -1.9035334761    -0.9917955644    -0.6194869448
   26      H      -1.5613281516    -1.8873986895    -0.1172288080
   27      C      -3.1219095222    -0.9764498348    -1.2671920414
   28      H      -3.7369272474    -1.8678745042    -1.2492941847
   29      C      -2.7944706297     1.2911858584    -1.9670880103
   30      C      -3.5913283753     0.1446569847    -1.9528789887
   31      C      -4.9640969331     0.0682500929    -2.5572953685
   32      H      -5.4485438552    -0.8320352098    -2.1764730664
   33      H      -4.9136927336    -0.0508712114    -3.6431181391
   34      C       2.2452230848    -1.1610688601     1.3257241437
   35      C       3.5514393992    -1.3942681862     2.0757461196
   36      H       4.2350153268    -2.0029756250     1.4844540831
   37      H       3.3751974349    -1.9459041684     2.9987069506
   38      H       4.0539548180    -0.4592809175     2.3265637146
   39      C      -5.8145668971     1.2947515975    -2.2174772640
   40      H      -6.8698104117     1.0179162131    -2.2079168374
   41      H      -5.5810554465     1.6122845881    -1.1946221089
   42      C      -5.6097258099     2.3789785556    -3.2286400874
   43      C      -6.6945942432     2.8935954646    -3.8830298077
   44      H      -7.6846573035     2.5818195732    -3.5693290517
   45      C      -6.5983581636     3.7772403829    -4.9800946010
   46      C      -7.7476145707     4.2871900077    -5.5892344075
   47      N      -8.7060136761     4.7085340969    -6.0961759055
   48      C      -5.2730634536     4.0903467498    -5.4528573837
   49      C      -4.1745886852     3.5886141561    -4.7558406508
   50      H      -3.2016869180     3.9042278815    -5.1115782318
   51      C      -4.2831268021     2.7533398235    -3.6567882463
   52      C      -5.0604961345     4.8971360013    -6.5841897329
   53      N      -4.8801325432     5.5665809996    -7.5141421109
   54      C      -3.0427446516     2.5640461354    -2.7840312553
   55      C      -1.7891255462     2.7769783164    -3.6038238652
   56      C      -1.2607649410     1.9449706583    -4.5668419285
   57      H      -1.7387773410     1.0076569353    -4.8193845413
   58      C      -0.1050034271     2.3546803739    -5.2146736439
   59      H       0.3246974791     1.7263570522    -5.9836437499
   60      C       0.5266251013     3.5794555890    -4.9042903741
   61      H       1.4271860800     3.8543550735    -5.4355645169
   62      C       0.0104229114     4.4138013547    -3.9483703918
   63      H       0.4905135588     5.3522495612    -3.7067161425
   64      C      -1.1638437726     4.0112024102    -3.2852523452
   65      C      -1.9202926852     4.6513353882    -2.2774336637
   66      C      -1.7409016241     5.9012366462    -1.6603672435
   67      H      -0.9269871711     6.5514343805    -1.9517832892
   68      C      -2.6252307707     6.2660654437    -0.6811945049
   69      H      -2.5251806356     7.2202924551    -0.1834817948
   70      C      -3.6799151932     5.4010329803    -0.3033743018
   71      H      -4.3587087489     5.7211065151     0.4760817682
   72      C      -3.8714272425     4.1669829842    -0.9039936937
   73      H      -4.6893654309     3.5295875625    -0.5985092023
   74      C      -3.0024480625     3.7939145980    -1.9087414408
   75      C       1.6293091377    -2.5401641940     1.0043109149
   76      H       2.3231323111    -3.1327056376     0.4051740037
   77      H       1.4162733458    -3.0864503166     1.9248557979
   78      H       0.6988156522    -2.4557983328     0.4431758268
 ----------------------------------------------------------------

   19   -1855.4232695451      6.96E-09 Convergence criterion met
 Total energy in the final basis set = -1855.42326955
 Final energy is   -1855.42326954514
 **  OPTIMIZATION CONVERGED  **

                    Orbital Energies (a.u.)
 --------------------------------------------------------------

 Alpha MOs
 -- Occupied --
-14.683 -14.619 -14.613 -10.517 -10.517 -10.515 -10.514 -10.513
-10.503 -10.502 -10.502 -10.498 -10.497 -10.496 -10.495 -10.493
-10.491 -10.488 -10.487 -10.485 -10.475 -10.472 -10.470 -10.470
-10.464 -10.463 -10.461 -10.460 -10.458 -10.458 -10.457 -10.457
-10.455 -10.450 -10.449 -10.449 -10.449 -10.448 -10.448 -10.447
-10.446 -10.445 -10.443 -10.443 -10.443 -10.429 -10.429  -1.096
 -1.054  -0.997  -0.993  -0.991  -0.983  -0.970  -0.964  -0.957
 -0.943  -0.917  -0.916  -0.906  -0.885  -0.869  -0.868  -0.860
 -0.854  -0.841  -0.840  -0.832  -0.825  -0.808  -0.790  -0.774
 -0.761  -0.754  -0.729  -0.723  -0.711  -0.706  -0.705  -0.693
 -0.689  -0.686  -0.677  -0.672  -0.654  -0.629  -0.624  -0.617
 -0.616  -0.607  -0.601  -0.591  -0.575  -0.565  -0.562  -0.554
 -0.546  -0.544  -0.540  -0.537  -0.535  -0.532  -0.526  -0.524
 -0.520  -0.513  -0.513  -0.505  -0.504  -0.497  -0.497  -0.494
 -0.491  -0.483  -0.478  -0.470  -0.465  -0.463  -0.457  -0.449
 -0.449  -0.446  -0.445  -0.442  -0.441  -0.439  -0.431  -0.430
 -0.427  -0.425  -0.422  -0.420  -0.415  -0.412  -0.408  -0.404
 -0.403  -0.399  -0.394  -0.390  -0.385  -0.378  -0.373  -0.367
 -0.363  -0.359  -0.358  -0.343  -0.331  -0.308  -0.304  -0.299
 -0.295  -0.294  -0.288  -0.285  -0.237  -0.137

 Beta MOs
 -- Occupied --
-14.683 -14.616 -14.608 -10.519 -10.518 -10.518 -10.517 -10.513
-10.506 -10.506 -10.502 -10.498 -10.498 -10.496 -10.496 -10.493
-10.491 -10.487 -10.486 -10.483 -10.475 -10.472 -10.471 -10.470
-10.465 -10.464 -10.461 -10.460 -10.458 -10.457 -10.457 -10.454
-10.450 -10.450 -10.449 -10.449 -10.449 -10.448 -10.448 -10.446
-10.446 -10.444 -10.443 -10.443 -10.443 -10.429 -10.429  -1.096
 -1.061  -0.999  -0.994  -0.990  -0.977  -0.969  -0.964  -0.955
 -0.944  -0.920  -0.916  -0.904  -0.886  -0.869  -0.865  -0.856
 -0.854  -0.853  -0.840  -0.830  -0.825  -0.806  -0.788  -0.774
 -0.765  -0.750  -0.730  -0.723  -0.710  -0.709  -0.704  -0.696
 -0.689  -0.686  -0.677  -0.672  -0.654  -0.629  -0.624  -0.617
 -0.616  -0.606  -0.603  -0.591  -0.575  -0.565  -0.561  -0.555
 -0.546  -0.544  -0.540  -0.537  -0.536  -0.533  -0.526  -0.525
 -0.523  -0.515  -0.512  -0.506  -0.504  -0.497  -0.497  -0.495
 -0.492  -0.485  -0.478  -0.475  -0.466  -0.464  -0.458  -0.453
 -0.450  -0.448  -0.445  -0.441  -0.440  -0.437  -0.431  -0.430
 -0.426  -0.425  -0.422  -0.420  -0.411  -0.408  -0.406  -0.403
 -0.399  -0.392  -0.389  -0.387  -0.384  -0.384  -0.378  -0.367
 -0.366  -0.361  -0.356  -0.344  -0.335  -0.316  -0.308  -0.301
 -0.296  -0.293  -0.288  -0.285  -0.251  -0.237

          Ground-State Mulliken Net Atomic Charges

     Atom                 Charge (a.u.)    Spin (a.u.)
  --------------------------------------------------------
      1 N                    -0.717646      -0.000496
      2 C                     0.303977       0.000012
      3 C                     0.308433       0.000294
      4 C                    -0.297743       0.000118
      5 H                     0.253390       0.000009
      6 C                    -0.259529      -0.000158
      7 H                     0.240139       0.000008
      8 C                    -0.241878       0.000199
      9 H                     0.236820      -0.000012
     10 C                    -0.344237      -0.000132
     11 H                     0.237521       0.000009
     12 C                     0.153104       0.000178
     13 C                    -0.304099      -0.000190
     14 H                     0.261651       0.000387
     15 C                    -0.257356      -0.000343
     16 H                     0.232793       0.000071
     17 C                    -0.243932      -0.000071
     18 H                     0.236165       0.000000
     19 C                    -0.340585       0.000090
     20 H                     0.238233      -0.000009
     21 C                     0.142990      -0.000151
     22 C                     0.248714       0.010467
     23 C                    -0.330220      -0.016208
     24 H                     0.275618       0.000754
     25 C                    -0.240866      -0.020363
     26 H                     0.261057       0.001182
     27 C                    -0.312188      -0.003173
     28 H                     0.250772       0.000425
     29 C                     0.220169      -0.010573
     30 C                     0.069543      -0.000718
     31 C                    -0.519817       0.007745
     32 H                     0.255127      -0.001127
     33 H                     0.262145      -0.000838
     34 C                    -0.217665       0.000005
     35 C                    -0.675828      -0.000000
     36 H                     0.238910      -0.000000
     37 H                     0.239762      -0.000000
     38 H                     0.240712      -0.000000
     39 C                    -0.543015      -0.014789
     40 H                     0.259074       0.000650
     41 H                     0.233411       0.011869
     42 C                     0.095986       0.166796
     43 C                    -0.338471      -0.082625
     44 H                     0.235110       0.003577
     45 C                    -0.011755       0.318148
     46 C                    -0.048950      -0.085438
     47 N                    -0.288405       0.194061
     48 C                     0.003244       0.230010
     49 C                    -0.300514      -0.157774
     50 H                     0.243623       0.009752
     51 C                     0.115825       0.233276
     52 C                    -0.038885      -0.062456
     53 N                    -0.277556       0.135920
     54 C                    -0.410451       0.030299
     55 C                     0.063714      -0.234892
     56 C                    -0.242716       0.143155
     57 H                     0.281412      -0.005970
     58 C                    -0.212081      -0.261834
     59 H                     0.290758       0.014018
     60 C                    -0.212976       0.040212
     61 H                     0.284292      -0.000978
     62 C                    -0.300900      -0.063516
     63 H                     0.270767       0.004825
     64 C                     0.179153      -0.079620
     65 C                     0.140020      -0.109351
     66 C                    -0.289641      -0.054959
     67 H                     0.268851       0.004578
     68 C                    -0.222216       0.046069
     69 H                     0.283375      -0.001499
     70 C                    -0.191970      -0.290580
     71 H                     0.289341       0.015533
     72 C                    -0.277166       0.171626
     73 H                     0.275316      -0.007826
     74 C                     0.207683      -0.227651
     75 C                    -0.616456      -0.000011
     76 H                     0.230116       0.000002
     77 H                     0.228773       0.000000
     78 H                     0.240125      -0.000001
  --------------------------------------------------------
  Sum of atomic charges =    -0.000000

                    Cartesian Multipole Moments
 -----------------------------------------------------------------
    Charge (ESU x 10^10)
                -0.0000
    Dipole Moment (Debye)
         X      17.6080      Y      -5.2558      Z      14.7322
       Tot      23.5521
    Quadrupole Moments (Debye-Ang)
        XX    -405.4771     XY      99.8400     YY    -284.4082
        XZ    -161.7076     YZ      96.0012     ZZ    -386.5346

 Total job time:  23927.02s(wall), 96609.48s(cpu)
        *  Thank you very much for using Q-Chem.  Have a nice day.  *
