 Q-Chem 5.1, Q-Chem, Inc., Pleasanton, CA (2018)
 Q-Chem 5.1.1 for Intel X86 EM64T Linux

User input:
--------------------------------------------------------------
$rem
threads 8
jobtype	sp
method PBEh-3c
basis def2-mSVP
mem_static	1024
mem_total	8000
sym_ignore	true
unrestricted true
scf_convergence	9
solvent_method	pcm
$end

$molecule
read incoords.mol
$end

$solvent
dielectric	2.38
$end

$pcm
theory iefpcm
$end
--------------------------------------------------------------

   17   -1855.5333794524      2.57e-10  Convergence criterion met
 Total energy in the final basis set =    -1855.5333794524
 Total job time:  1343.30s(wall), 9913.02s(cpu)
        *  Thank you very much for using Q-Chem.  Have a nice day.  *
 Q-Chem 5.1, Q-Chem, Inc., Pleasanton, CA (2018)
 Q-Chem 5.1.1 for Intel X86 EM64T Linux

User input:
--------------------------------------------------------------

$rem
threads 8
jobtype opt
method PBEh-3c
basis def2-mSVP
scf_guess	read
mem_static      1024
mem_total       8000
sym_ignore      true
unrestricted true
mom_start       1
scf_algorithm	diis
scf_max_cycles	250
solvent_method	pcm
geom_opt_tol_energy 25
geom_opt_tol_gradient 75
$end

$solvent
dielectric      2.38
$end

$pcm
theory iefpcm
$end

$occupied
1 2 3 4 5 6 7 8 9 10 11 12 13 14 15 16 17 18 19 20 21 22 23 24 25 26 27 28 29 30 31 32 33 34 35 36 37 38 39 40 41 42 43 44 45 46 47 48 49 50 51 52 53 54 55 56 57 58 59 60 61 62 63 64 65 66 67 68 69 70 71 72 73 74 75 76 77 78 79 80 81 82 83 84 85 86 87 88 89 90 91 92 93 94 95 96 97 98 99 100 101 102 103 104 105 106 107 108 109 110 111 112 113 114 115 116 117 118 119 120 121 122 123 124 125 126 127 128 129 130 131 132 133 134 135 136 137 138 139 140 141 142 143 144 145 146 147 148 149 150 151 152 153 154 155 156 158 159
1 2 3 4 5 6 7 8 9 10 11 12 13 14 15 16 17 18 19 20 21 22 23 24 25 26 27 28 29 30 31 32 33 34 35 36 37 38 39 40 41 42 43 44 45 46 47 48 49 50 51 52 53 54 55 56 57 58 59 60 61 62 63 64 65 66 67 68 69 70 71 72 73 74 75 76 77 78 79 80 81 82 83 84 85 86 87 88 89 90 91 92 93 94 95 96 97 98 99 100 101 102 103 104 105 106 107 108 109 110 111 112 113 114 115 116 117 118 119 120 121 122 123 124 125 126 127 128 129 130 131 132 133 134 135 136 137 138 139 140 141 142 143 144 145 146 147 148 149 150 151 152 153 154 155 156 157 158
$end

$molecule
read incoords.mol
$end

--------------------------------------------------------------

   15   -1855.5334464637      4.41E-09 Convergence criterion met
 Total energy in the final basis set = -1855.53344646
   13   -1855.5427855153      7.27E-09 Convergence criterion met
 Total energy in the final basis set = -1855.54278552
   13   -1855.5447833193      7.46E-09 Convergence criterion met
 Total energy in the final basis set = -1855.54478332
   13   -1855.5457537779      6.88E-09 Convergence criterion met
 Total energy in the final basis set = -1855.54575378
   13   -1855.5457677968      6.45E-09 Convergence criterion met
 Total energy in the final basis set = -1855.54576780
   13   -1855.5458203064      5.66E-09 Convergence criterion met
 Total energy in the final basis set = -1855.54582031
   13   -1855.5458591095      5.29E-09 Convergence criterion met
 Total energy in the final basis set = -1855.54585911
   13   -1855.5458166893      5.24E-09 Convergence criterion met
 Total energy in the final basis set = -1855.54581669
   13   -1855.5457947670      5.38E-09 Convergence criterion met
 Total energy in the final basis set = -1855.54579477
   13   -1855.5458068611      5.41E-09 Convergence criterion met
 Total energy in the final basis set = -1855.54580686
   13   -1855.5457915150      5.41E-09 Convergence criterion met
 Total energy in the final basis set = -1855.54579152

             Standard Nuclear Orientation (Angstroms)
    I     Atom           X                Y                Z
 ----------------------------------------------------------------
    1      N       0.0809516991     0.1852979412     0.1136125693
    2      C       0.0903667633     0.1832649378     1.5106896101
    3      C       1.2974941473     0.2125371378    -0.5765995110
    4      C      -0.9706940316     0.7318489554     2.2287236612
    5      H      -1.8235187038     1.1448035358     1.7061257799
    6      C      -0.9254293905     0.7689413321     3.6113524069
    7      H      -1.7541571081     1.1984003035     4.1592463930
    8      C       0.1828110649     0.2804042780     4.2849391031
    9      H       0.2304472454     0.3199344747     5.3649734534
   10      C       1.2304010556    -0.2742905506     3.5638657117
   11      H       2.0807174704    -0.6689424088     4.1033483028
   12      C       1.1940892417    -0.3571171096     2.1782968608
   13      C       1.4049821234     0.7433461416    -1.8621830208
   14      H       0.5364537400     1.1175673052    -2.3859555617
   15      C       2.6370840446     0.8064690572    -2.4896138127
   16      H       2.6977081900     1.2252537885    -3.4859751063
   17      C       3.7761617775     0.3579990135    -1.8425481374
   18      H       4.7443587871     0.4221759591    -2.3208971405
   19      C       3.6598516054    -0.1993262088    -0.5778850335
   20      H       4.5495555014    -0.5783989464    -0.0941817556
   21      C       2.4313648290    -0.3102824975     0.0593342705
   22      C      -1.1573100498     0.1874244201    -0.5743663947
   23      C      -1.6407689194     1.3164723306    -1.2053854260
   24      H      -1.0609926747     2.2274993044    -1.1325853857
   25      C      -1.9030025889    -0.9847067326    -0.6224892920
   26      H      -1.5471723693    -1.8773370879    -0.1247181490
   27      C      -3.1025258011    -0.9892654611    -1.2968677711
   28      H      -3.6968324325    -1.8948891856    -1.3103888191
   29      C      -2.8240842925     1.3041194447    -1.9549469602
   30      C      -3.5789989489     0.1337001334    -1.9786552289
   31      C      -4.9258112248     0.0200292461    -2.6314462033
   32      H      -5.4030079404    -0.8932995753    -2.2742710371
   33      H      -4.8399132072    -0.0930500662    -3.7164272200
   34      C       2.2273012723    -1.0903249664     1.3445661154
   35      C       3.5296322254    -1.3142681501     2.1042282441
   36      H       4.2391392783    -1.8803678046     1.5010989022
   37      H       3.3572055017    -1.9052983082     3.0034157944
   38      H       4.0006052268    -0.3750655269     2.3970176695
   39      C      -5.8201508803     1.2148376191    -2.3074377951
   40      H      -6.8679577716     0.9153970168    -2.3434689344
   41      H      -5.6328048068     1.5470887610    -1.2828277499
   42      C      -5.6014214865     2.3200736150    -3.2924839878
   43      C      -6.7088259570     2.7733312543    -4.0047496777
   44      H      -7.6842275967     2.3646028307    -3.7748140377
   45      C      -6.6010777233     3.7192494495    -5.0077612242
   46      C      -7.7630190112     4.1489958738    -5.7126957701
   47      N      -8.7101463399     4.4861535982    -6.2733978021
   48      C      -5.3343829665     4.2217268753    -5.3187149170
   49      C      -4.2322848776     3.7791396436    -4.6083950605
   50      H      -3.2709629281     4.1971385192    -4.8708122988
   51      C      -4.3348120822     2.8356238557    -3.5833154029
   52      C      -5.1656498722     5.1819615221    -6.3594936524
   53      N      -5.0234220566     5.9553957730    -7.1999616458
   54      C      -3.0560465865     2.5815960929    -2.7760103840
   55      C      -1.8362866944     2.7124511482    -3.6768163453
   56      C      -1.4395551494     1.8500779568    -4.6789831498
   57      H      -2.0092531231     0.9564194144    -4.9049017462
   58      C      -0.2870743228     2.1516691551    -5.3936392421
   59      H       0.0428890012     1.4914771189    -6.1848723380
   60      C       0.4470544567     3.2967835772    -5.0987721863
   61      H       1.3420844412     3.5173604322    -5.6655078755
   62      C       0.0463071507     4.1591012038    -4.0872633997
   63      H       0.6254569410     5.0462774000    -3.8642585424
   64      C      -1.1060305732     3.8600621733    -3.3745597571
   65      C      -1.7773255747     4.5585533718    -2.2804192739
   66      C      -1.4707064664     5.7425992667    -1.6274497750
   67      H      -0.6018176142     6.3239781640    -1.9088995874
   68      C      -2.3017105561     6.1718697982    -0.6019177007
   69      H      -2.0776573510     7.0940458698    -0.0824023289
   70      C      -3.4194499071     5.4304988244    -0.2322392360
   71      H      -4.0535117891     5.7816497021     0.5710241298
   72      C      -3.7283187277     4.2448491632    -0.8863993385
   73      H      -4.6014603665     3.6721073721    -0.5980639566
   74      C      -2.9010368135     3.8212807820    -1.9056189355
   75      C       1.6538865931    -2.4735940406     0.9678669689
   76      H       2.3705433292    -3.0254603992     0.3568801603
   77      H       1.4430891754    -3.0582703548     1.8651867774
   78      H       0.7293373466    -2.3933520081     0.3965552961
 ----------------------------------------------------------------

   13   -1855.5457879811      5.37E-09 Convergence criterion met
 Total energy in the final basis set = -1855.54578798
 Final energy is   -1855.54578798106
 **  OPTIMIZATION CONVERGED  **

                    Orbital Energies (a.u.)
 --------------------------------------------------------------

 Alpha MOs
 -- Occupied --
-14.676 -14.662 -14.660 -10.520 -10.519 -10.508 -10.506 -10.505
-10.504 -10.495 -10.495 -10.490 -10.489 -10.489 -10.489 -10.481
-10.472 -10.471 -10.471 -10.469 -10.468 -10.468 -10.464 -10.462
-10.461 -10.461 -10.460 -10.460 -10.459 -10.459 -10.458 -10.458
-10.458 -10.457 -10.456 -10.452 -10.451 -10.444 -10.444 -10.443
-10.442 -10.442 -10.440 -10.438 -10.436 -10.427 -10.426  -1.089
 -1.043  -1.029  -1.025  -1.003  -0.983  -0.963  -0.959  -0.958
 -0.935  -0.928  -0.910  -0.894  -0.886  -0.880  -0.853  -0.851
 -0.847  -0.841  -0.834  -0.820  -0.819  -0.805  -0.790  -0.771
 -0.769  -0.743  -0.726  -0.722  -0.712  -0.707  -0.700  -0.687
 -0.676  -0.674  -0.671  -0.666  -0.664  -0.642  -0.619  -0.611
 -0.611  -0.605  -0.594  -0.579  -0.576  -0.567  -0.562  -0.556
 -0.539  -0.535  -0.534  -0.530  -0.525  -0.522  -0.520  -0.518
 -0.510  -0.505  -0.503  -0.501  -0.497  -0.495  -0.495  -0.491
 -0.489  -0.488  -0.480  -0.479  -0.469  -0.464  -0.457  -0.448
 -0.446  -0.444  -0.442  -0.441  -0.437  -0.436  -0.432  -0.429
 -0.426  -0.425  -0.422  -0.418  -0.418  -0.413  -0.411  -0.409
 -0.407  -0.402  -0.401  -0.400  -0.396  -0.395  -0.389  -0.379
 -0.373  -0.358  -0.345  -0.336  -0.320  -0.310  -0.303  -0.301
 -0.294  -0.289  -0.287  -0.281  -0.266  -0.230

 Beta MOs
 -- Occupied --
-14.676 -14.662 -14.660 -10.520 -10.519 -10.508 -10.506 -10.505
-10.504 -10.495 -10.495 -10.490 -10.489 -10.489 -10.489 -10.481
-10.472 -10.471 -10.471 -10.469 -10.468 -10.468 -10.464 -10.462
-10.461 -10.461 -10.460 -10.460 -10.459 -10.459 -10.458 -10.458
-10.458 -10.457 -10.456 -10.452 -10.451 -10.444 -10.444 -10.443
-10.442 -10.442 -10.440 -10.438 -10.436 -10.427 -10.426  -1.089
 -1.043  -1.029  -1.025  -1.003  -0.983  -0.963  -0.959  -0.958
 -0.935  -0.928  -0.910  -0.894  -0.886  -0.880  -0.853  -0.851
 -0.847  -0.841  -0.834  -0.820  -0.819  -0.805  -0.790  -0.771
 -0.769  -0.743  -0.726  -0.722  -0.712  -0.707  -0.700  -0.687
 -0.676  -0.674  -0.671  -0.666  -0.664  -0.642  -0.619  -0.611
 -0.611  -0.605  -0.594  -0.579  -0.576  -0.567  -0.562  -0.556
 -0.539  -0.535  -0.534  -0.530  -0.525  -0.522  -0.520  -0.518
 -0.510  -0.505  -0.503  -0.501  -0.497  -0.495  -0.495  -0.491
 -0.489  -0.488  -0.480  -0.479  -0.469  -0.464  -0.457  -0.448
 -0.446  -0.444  -0.442  -0.441  -0.437  -0.436  -0.432  -0.429
 -0.426  -0.425  -0.422  -0.418  -0.418  -0.413  -0.411  -0.409
 -0.407  -0.402  -0.401  -0.400  -0.396  -0.395  -0.389  -0.379
 -0.373  -0.358  -0.345  -0.336  -0.320  -0.310  -0.303  -0.301
 -0.294  -0.289  -0.287  -0.281  -0.266  -0.230

          Ground-State Mulliken Net Atomic Charges

     Atom                 Charge (a.u.)    Spin (a.u.)
  --------------------------------------------------------
      1 N                    -0.719114       0.000000
      2 C                     0.304800      -0.000000
      3 C                     0.307858       0.000000
      4 C                    -0.289084      -0.000000
      5 H                     0.249623      -0.000000
      6 C                    -0.252773       0.000000
      7 H                     0.230554       0.000000
      8 C                    -0.233895      -0.000000
      9 H                     0.227073      -0.000000
     10 C                    -0.340109      -0.000000
     11 H                     0.227551      -0.000000
     12 C                     0.159639       0.000000
     13 C                    -0.300253      -0.000000
     14 H                     0.270526       0.000000
     15 C                    -0.250222      -0.000000
     16 H                     0.229371      -0.000000
     17 C                    -0.236176       0.000000
     18 H                     0.225357       0.000000
     19 C                    -0.336641      -0.000000
     20 H                     0.227250      -0.000000
     21 C                     0.148357       0.000000
     22 C                     0.257750       0.000000
     23 C                    -0.327412      -0.000000
     24 H                     0.285947       0.000000
     25 C                    -0.242732      -0.000000
     26 H                     0.248514       0.000000
     27 C                    -0.306565      -0.000000
     28 H                     0.235070      -0.000000
     29 C                     0.223465      -0.000000
     30 C                     0.061277       0.000000
     31 C                    -0.528232       0.000000
     32 H                     0.259480       0.000000
     33 H                     0.257188      -0.000000
     34 C                    -0.219653      -0.000000
     35 C                    -0.672431       0.000000
     36 H                     0.234137      -0.000000
     37 H                     0.234055      -0.000000
     38 H                     0.241193       0.000000
     39 C                    -0.543714       0.000000
     40 H                     0.263570       0.000000
     41 H                     0.265106      -0.000000
     42 C                     0.103618       0.000000
     43 C                    -0.324038       0.000000
     44 H                     0.265608      -0.000000
     45 C                     0.073257      -0.000000
     46 C                     0.006265       0.000000
     47 N                    -0.186283      -0.000000
     48 C                     0.085523      -0.000000
     49 C                    -0.292756      -0.000000
     50 H                     0.291318       0.000000
     51 C                     0.217775      -0.000000
     52 C                     0.004270      -0.000000
     53 N                    -0.186979       0.000000
     54 C                    -0.436032      -0.000000
     55 C                     0.053022       0.000000
     56 C                    -0.264127      -0.000000
     57 H                     0.238740       0.000000
     58 C                    -0.248301       0.000000
     59 H                     0.244792      -0.000000
     60 C                    -0.228618      -0.000000
     61 H                     0.243833      -0.000000
     62 C                    -0.337693       0.000000
     63 H                     0.232348       0.000000
     64 C                     0.152048      -0.000000
     65 C                     0.140799       0.000000
     66 C                    -0.334937      -0.000000
     67 H                     0.231196       0.000000
     68 C                    -0.228705       0.000000
     69 H                     0.243404      -0.000000
     70 C                    -0.237963      -0.000000
     71 H                     0.242080       0.000000
     72 C                    -0.284462       0.000000
     73 H                     0.233921      -0.000000
     74 C                     0.133868      -0.000000
     75 C                    -0.611411      -0.000000
     76 H                     0.227022      -0.000000
     77 H                     0.224185      -0.000000
     78 H                     0.237710       0.000000
  --------------------------------------------------------
  Sum of atomic charges =     0.000000

                    Cartesian Multipole Moments
 -----------------------------------------------------------------
    Charge (ESU x 10^10)
                 0.0000
    Dipole Moment (Debye)
         X       3.2017      Y      -5.3295      Z       5.9032
       Tot       8.5734
    Quadrupole Moments (Debye-Ang)
        XX    -296.1910     XY      47.9398     YY    -296.0053
        XZ     -62.2348     YZ      53.4454     ZZ    -323.3256

 Total job time:  10481.80s(wall), 46785.18s(cpu)
        *  Thank you very much for using Q-Chem.  Have a nice day.  *
