 Q-Chem 5.1, Q-Chem, Inc., Pleasanton, CA (2018)
 Q-Chem 5.1.1 for Intel X86 EM64T Linux

User input:
--------------------------------------------------------------
$rem
threads 8
jobtype	sp
method PBEh-3c
basis def2-mSVP
mem_static	1024
mem_total	8000
sym_ignore	true
unrestricted true
scf_convergence	9
solvent_method	pcm
$end

$molecule
read incoords.mol
$end

$solvent
dielectric	2.03
$end

$pcm
theory iefpcm
$end
--------------------------------------------------------------

   17   -1855.5309262033      2.65e-10  Convergence criterion met
 Total energy in the final basis set =    -1855.5309262033
 Total job time:  1702.66s(wall), 11925.75s(cpu)
        *  Thank you very much for using Q-Chem.  Have a nice day.  *
 Q-Chem 5.1, Q-Chem, Inc., Pleasanton, CA (2018)
 Q-Chem 5.1.1 for Intel X86 EM64T Linux

User input:
--------------------------------------------------------------

$rem
threads 8
jobtype opt
method PBEh-3c
basis def2-mSVP
scf_guess	read
mem_static      1024
mem_total       8000
sym_ignore      true
unrestricted true
mom_start       1
scf_algorithm	diis
scf_max_cycles	250
solvent_method	pcm
geom_opt_tol_energy 25
geom_opt_tol_gradient 75
$end

$solvent
dielectric      2.03
$end
$pcm
theory iefpcm
$end

$occupied
1 2 3 4 5 6 7 8 9 10 11 12 13 14 15 16 17 18 19 20 21 22 23 24 25 26 27 28 29 30 31 32 33 34 35 36 37 38 39 40 41 42 43 44 45 46 47 48 49 50 51 52 53 54 55 56 57 58 59 60 61 62 63 64 65 66 67 68 69 70 71 72 73 74 75 76 77 78 79 80 81 82 83 84 85 86 87 88 89 90 91 92 93 94 95 96 97 98 99 100 101 102 103 104 105 106 107 108 109 110 111 112 113 114 115 116 117 118 119 120 121 122 123 124 125 126 127 128 129 130 131 132 133 134 135 136 137 138 139 140 141 142 143 144 145 146 147 148 149 150 151 152 153 154 155 156 158 159
1 2 3 4 5 6 7 8 9 10 11 12 13 14 15 16 17 18 19 20 21 22 23 24 25 26 27 28 29 30 31 32 33 34 35 36 37 38 39 40 41 42 43 44 45 46 47 48 49 50 51 52 53 54 55 56 57 58 59 60 61 62 63 64 65 66 67 68 69 70 71 72 73 74 75 76 77 78 79 80 81 82 83 84 85 86 87 88 89 90 91 92 93 94 95 96 97 98 99 100 101 102 103 104 105 106 107 108 109 110 111 112 113 114 115 116 117 118 119 120 121 122 123 124 125 126 127 128 129 130 131 132 133 134 135 136 137 138 139 140 141 142 143 144 145 146 147 148 149 150 151 152 153 154 155 156 157 158
$end

$molecule
read incoords.mol
$end

--------------------------------------------------------------

   29   -1855.3941940783      5.17E-09 Convergence criterion met
 Total energy in the final basis set = -1855.39419408
   31   -1855.4036631052      6.91E-09 Convergence criterion met
 Total energy in the final basis set = -1855.40366311

                    Orbital Energies (a.u.)
 --------------------------------------------------------------

 Alpha MOs
 -- Occupied --
-14.690 -14.609 -14.603 -10.522 -10.522 -10.519 -10.517 -10.515
-10.508 -10.507 -10.506 -10.503 -10.502 -10.501 -10.501 -10.500
-10.498 -10.494 -10.494 -10.490 -10.481 -10.475 -10.475 -10.470
-10.467 -10.460 -10.459 -10.459 -10.455 -10.454 -10.454 -10.453
-10.452 -10.451 -10.451 -10.451 -10.451 -10.451 -10.450 -10.449
-10.446 -10.444 -10.444 -10.444 -10.442 -10.432 -10.432  -1.101
 -1.059  -0.999  -0.997  -0.987  -0.973  -0.971  -0.967  -0.957
 -0.945  -0.922  -0.918  -0.908  -0.891  -0.873  -0.869  -0.860
 -0.857  -0.849  -0.843  -0.832  -0.825  -0.809  -0.792  -0.776
 -0.767  -0.755  -0.733  -0.726  -0.715  -0.712  -0.707  -0.700
 -0.690  -0.689  -0.679  -0.672  -0.657  -0.634  -0.625  -0.622
 -0.617  -0.609  -0.606  -0.595  -0.578  -0.567  -0.564  -0.559
 -0.551  -0.547  -0.546  -0.541  -0.538  -0.535  -0.530  -0.528
 -0.524  -0.516  -0.515  -0.509  -0.507  -0.501  -0.496  -0.494
 -0.492  -0.487  -0.483  -0.473  -0.467  -0.464  -0.463  -0.455
 -0.454  -0.451  -0.448  -0.446  -0.444  -0.444  -0.436  -0.434
 -0.429  -0.427  -0.425  -0.421  -0.409  -0.408  -0.405  -0.402
 -0.401  -0.392  -0.391  -0.389  -0.384  -0.381  -0.374  -0.366
 -0.366  -0.357  -0.349  -0.344  -0.335  -0.311  -0.308  -0.299
 -0.294  -0.294  -0.293  -0.280  -0.234  -0.130

 Beta MOs
 -- Occupied --
-14.690 -14.606 -14.599 -10.524 -10.523 -10.522 -10.520 -10.515
-10.512 -10.511 -10.506 -10.504 -10.502 -10.502 -10.501 -10.500
-10.498 -10.494 -10.492 -10.488 -10.482 -10.476 -10.475 -10.470
-10.467 -10.460 -10.460 -10.459 -10.456 -10.453 -10.453 -10.452
-10.451 -10.451 -10.451 -10.451 -10.450 -10.450 -10.449 -10.446
-10.446 -10.444 -10.444 -10.444 -10.441 -10.432 -10.432  -1.101
 -1.065  -1.005  -0.997  -0.982  -0.971  -0.967  -0.966  -0.957
 -0.945  -0.924  -0.918  -0.906  -0.892  -0.874  -0.866  -0.861
 -0.859  -0.854  -0.843  -0.830  -0.825  -0.808  -0.791  -0.776
 -0.770  -0.751  -0.734  -0.725  -0.715  -0.715  -0.706  -0.703
 -0.690  -0.688  -0.679  -0.672  -0.657  -0.634  -0.625  -0.622
 -0.617  -0.611  -0.606  -0.595  -0.578  -0.567  -0.564  -0.559
 -0.553  -0.547  -0.547  -0.541  -0.538  -0.535  -0.530  -0.529
 -0.527  -0.518  -0.514  -0.509  -0.508  -0.501  -0.496  -0.495
 -0.494  -0.488  -0.483  -0.478  -0.470  -0.467  -0.463  -0.456
 -0.455  -0.453  -0.451  -0.446  -0.445  -0.441  -0.434  -0.432
 -0.428  -0.426  -0.422  -0.422  -0.409  -0.408  -0.402  -0.401
 -0.399  -0.391  -0.388  -0.387  -0.384  -0.381  -0.374  -0.373
 -0.362  -0.355  -0.347  -0.343  -0.339  -0.323  -0.309  -0.307
 -0.298  -0.294  -0.293  -0.282  -0.246  -0.234

          Ground-State Mulliken Net Atomic Charges

     Atom                 Charge (a.u.)    Spin (a.u.)
  --------------------------------------------------------
      1 N                    -0.713968      -0.000913
      2 C                     0.316102      -0.000126
      3 C                     0.324383       0.000325
      4 C                    -0.302744      -0.000287
      5 H                     0.250327       0.000011
      6 C                    -0.245455       0.000198
      7 H                     0.230105      -0.000007
      8 C                    -0.234420      -0.000370
      9 H                     0.227565       0.000021
     10 C                    -0.323930      -0.000131
     11 H                     0.223895       0.000012
     12 C                     0.152654       0.000003
     13 C                    -0.314599       0.000066
     14 H                     0.256007       0.000077
     15 C                    -0.242376      -0.000281
     16 H                     0.220274       0.000047
     17 C                    -0.236824      -0.000267
     18 H                     0.226230       0.000006
     19 C                    -0.319387       0.000182
     20 H                     0.224981      -0.000006
     21 C                     0.139658      -0.000404
     22 C                     0.205171       0.015476
     23 C                    -0.292633      -0.020127
     24 H                     0.265705       0.000785
     25 C                    -0.223131      -0.029432
     26 H                     0.253265       0.001641
     27 C                    -0.309378      -0.002206
     28 H                     0.242574       0.000515
     29 C                     0.217741      -0.013043
     30 C                     0.071402      -0.002311
     31 C                    -0.507812       0.008948
     32 H                     0.246411      -0.001108
     33 H                     0.264822      -0.001016
     34 C                    -0.230760       0.000048
     35 C                    -0.658065      -0.000015
     36 H                     0.231621       0.000001
     37 H                     0.232973      -0.000002
     38 H                     0.241342      -0.000000
     39 C                    -0.546375      -0.015730
     40 H                     0.255324       0.000489
     41 H                     0.220636       0.012995
     42 C                     0.092657       0.187127
     43 C                    -0.325498      -0.104485
     44 H                     0.226718       0.004860
     45 C                    -0.001111       0.321461
     46 C                    -0.044824      -0.091962
     47 N                    -0.258615       0.184328
     48 C                     0.014670       0.216866
     49 C                    -0.292390      -0.146956
     50 H                     0.232827       0.009240
     51 C                     0.107320       0.212726
     52 C                    -0.039985      -0.063479
     53 N                    -0.252130       0.126558
     54 C                    -0.400696       0.036382
     55 C                     0.057049      -0.235666
     56 C                    -0.234967       0.137240
     57 H                     0.277547      -0.005241
     58 C                    -0.210477      -0.234343
     59 H                     0.278007       0.012613
     60 C                    -0.205603       0.017590
     61 H                     0.273029       0.000079
     62 C                    -0.302714      -0.041651
     63 H                     0.255582       0.003698
     64 C                     0.181358      -0.084666
     65 C                     0.135626      -0.104961
     66 C                    -0.291322      -0.045785
     67 H                     0.253945       0.004108
     68 C                    -0.219761       0.037014
     69 H                     0.271524      -0.001256
     70 C                    -0.190847      -0.267410
     71 H                     0.276499       0.014386
     72 C                    -0.273581       0.165183
     73 H                     0.268057      -0.007893
     74 C                     0.218326      -0.209721
     75 C                    -0.597679      -0.000048
     76 H                     0.226394       0.000001
     77 H                     0.225849      -0.000003
     78 H                     0.229904       0.000002
  --------------------------------------------------------
  Sum of atomic charges =     0.000000

                    Cartesian Multipole Moments
 -----------------------------------------------------------------
    Charge (ESU x 10^10)
                 0.0000
    Dipole Moment (Debye)
         X      15.5514      Y      -4.7768      Z      13.8967
       Tot      21.3958
    Quadrupole Moments (Debye-Ang)
        XX    -385.2287     XY      91.0542     YY    -287.2035
        XZ    -144.7659     YZ      91.8382     ZZ    -380.1837

             Standard Nuclear Orientation (Angstroms)
    I     Atom           X                Y                Z
 ----------------------------------------------------------------
    1      N       0.0309898365     0.0088075733     0.0404128487
    2      C       0.0588031533     0.0660521885     1.4348105782
    3      C       1.2137826171    -0.0056573477    -0.6939448273
    4      C      -1.0542569843     0.5149363652     2.1474162389
    5      H      -1.9525209784     0.8120818150     1.6231680638
    6      C      -1.0185702395     0.5942691745     3.5278912578
    7      H      -1.8934323031     0.9419876674     4.0622807858
    8      C       0.1299975188     0.2411607861     4.2155207993
    9      H       0.1694267303     0.3013983685     5.2947819657
   10      C       1.2297993763    -0.2077164076     3.5021363225
   11      H       2.1130091902    -0.4994828953     4.0531631029
   12      C       1.2184822757    -0.3149291395     2.1159474979
   13      C       1.2198964747     0.3191493840    -2.0511164889
   14      H       0.2957841574     0.5447631336    -2.5650429725
   15      C       2.4071326349     0.3603507766    -2.7604141557
   16      H       2.3859992314     0.6185973962    -3.8120353001
   17      C       3.6063749322     0.0818119723    -2.1296601418
   18      H       4.5418351279     0.1238241402    -2.6711234164
   19      C       3.5889462705    -0.2817431857    -0.7920579517
   20      H       4.5274015625    -0.5372085727    -0.3207569430
   21      C       2.4101104629    -0.3555391342    -0.0583970637
   22      C      -1.2150913124     0.0635589706    -0.6339239125
   23      C      -1.6535845593     1.2267468419    -1.2357423531
   24      H      -1.0155435808     2.0980251249    -1.1559854438
   25      C      -2.0001344363    -1.0758562349    -0.7178552565
   26      H      -1.6648606057    -2.0003010766    -0.2666618419
   27      C      -3.2214875459    -1.0064798001    -1.3604128376
   28      H      -3.8524667069    -1.8866542951    -1.3854261374
   29      C      -2.8553277662     1.2845480355    -1.9587978416
   30      C      -3.6790769762     0.1544367743    -1.9834021185
   31      C      -5.0675653574     0.1302070698    -2.5617718843
   32      H      -5.5799487638    -0.7439500884    -2.1568172102
   33      H      -5.0470147520    -0.0041568695    -3.6468222674
   34      C       2.3497835307    -0.9616904648     1.3342432248
   35      C       3.6847241287    -0.8468540216     2.0683203137
   36      H       4.4773306099    -1.3655841438     1.5312864371
   37      H       3.6376267570    -1.3193839400     3.0480290348
   38      H       3.9827283008     0.1933068962     2.2028958597
   39      C      -5.8599486757     1.3939860637    -2.2186143653
   40      H      -6.9268036886     1.1666810274    -2.1956058980
   41      H      -5.5998583695     1.6950947737    -1.1964065046
   42      C      -5.6152274786     2.4646055780    -3.2336056911
   43      C      -6.6756538889     2.9905567473    -3.9218810406
   44      H      -7.6790983571     2.7085760170    -3.6230062654
   45      C      -6.5390999404     3.8542876530    -5.0266987675
   46      C      -7.6731746907     4.3747073351    -5.6620166362
   47      N      -8.6285659889     4.7898963576    -6.1752866439
   48      C      -5.2006581595     4.1466440417    -5.4698391372
   49      C      -4.1299265351     3.6349636642    -4.7455171916
   50      H      -3.1448629164     3.9410499039    -5.0754013713
   51      C      -4.2739301796     2.8017550400    -3.6444219785
   52      C      -4.9412925809     4.9465715080    -6.5995287532
   53      N      -4.7055332692     5.6042998311    -7.5236599868
   54      C      -3.0620259879     2.5809974780    -2.7559131715
   55      C      -1.7843321036     2.7491269627    -3.5444106621
   56      C      -1.2894088044     1.9131169762    -4.5249794821
   57      H      -1.8333431814     1.0277952161    -4.8264147415
   58      C      -0.0912293297     2.2599906348    -5.1243601075
   59      H       0.3129952745     1.6295532526    -5.9052619435
   60      C       0.6170283757     3.4263532569    -4.7521633201
   61      H       1.5512852414     3.6557033893    -5.2452909081
   62      C       0.1335369129     4.2669377505    -3.7854321738
   63      H       0.6744744607     5.1600621983    -3.5050312268
   64      C      -1.0829686676     3.9275477520    -3.1684097690
   65      C      -1.8266456125     4.5845933708    -2.1650303515
   66      C      -1.5855330396     5.8004239439    -1.5059023931
   67      H      -0.7159253998     6.4000180312    -1.7376651175
   68      C      -2.4881550946     6.2051719098    -0.5597043047
   69      H      -2.3378416549     7.1368524983    -0.0327993489
   70      C      -3.6270830819     5.4164770717    -0.2622099277
   71      H      -4.3241746462     5.7711830034     0.4853996053
   72      C      -3.8783984439     4.2151048805    -0.9016627492
   73      H      -4.7651201623     3.6439499534    -0.6680570495
   74      C      -2.9790322442     3.7905712240    -1.8614155437
   75      C       2.0075475677    -2.4586192874     1.1665218009
   76      H       2.7803969431    -2.9653834731     0.5853405476
   77      H       1.9277391915    -2.9470411507     2.1396177913
   78      H       1.0574897647    -2.5949893756     0.6472249714
 ----------------------------------------------------------------
