 Q-Chem 5.1, Q-Chem, Inc., Pleasanton, CA (2018)
 Q-Chem 5.1.1 for Intel X86 EM64T Linux

User input:
--------------------------------------------------------------
$rem
threads 8
jobtype	sp
method PBEh-3c
basis def2-mSVP
mem_static	1024
mem_total	8000
sym_ignore	true
unrestricted true
scf_convergence	9
solvent_method	pcm
$end

$molecule
read incoords.mol
$end

$solvent
dielectric	2.03
$end

$pcm
theory iefpcm
$end
--------------------------------------------------------------

   17   -1855.5303283427      2.79e-10  Convergence criterion met
 Total energy in the final basis set =    -1855.5303283427
 Total job time:  1683.93s(wall), 11759.56s(cpu)
        *  Thank you very much for using Q-Chem.  Have a nice day.  *
 Q-Chem 5.1, Q-Chem, Inc., Pleasanton, CA (2018)
 Q-Chem 5.1.1 for Intel X86 EM64T Linux

User input:
--------------------------------------------------------------

$rem
threads 8
jobtype opt
method PBEh-3c
basis def2-mSVP
scf_guess	read
mem_static      1024
mem_total       8000
sym_ignore      true
unrestricted true
mom_start       1
scf_algorithm	diis
scf_max_cycles	250
solvent_method	pcm
geom_opt_tol_energy 25
geom_opt_tol_gradient 75
$end

$solvent
dielectric      2.03
$end
$pcm
theory iefpcm
$end

$occupied
1 2 3 4 5 6 7 8 9 10 11 12 13 14 15 16 17 18 19 20 21 22 23 24 25 26 27 28 29 30 31 32 33 34 35 36 37 38 39 40 41 42 43 44 45 46 47 48 49 50 51 52 53 54 55 56 57 58 59 60 61 62 63 64 65 66 67 68 69 70 71 72 73 74 75 76 77 78 79 80 81 82 83 84 85 86 87 88 89 90 91 92 93 94 95 96 97 98 99 100 101 102 103 104 105 106 107 108 109 110 111 112 113 114 115 116 117 118 119 120 121 122 123 124 125 126 127 128 129 130 131 132 133 134 135 136 137 138 139 140 141 142 143 144 145 146 147 148 149 150 151 152 153 154 155 156 158 159
1 2 3 4 5 6 7 8 9 10 11 12 13 14 15 16 17 18 19 20 21 22 23 24 25 26 27 28 29 30 31 32 33 34 35 36 37 38 39 40 41 42 43 44 45 46 47 48 49 50 51 52 53 54 55 56 57 58 59 60 61 62 63 64 65 66 67 68 69 70 71 72 73 74 75 76 77 78 79 80 81 82 83 84 85 86 87 88 89 90 91 92 93 94 95 96 97 98 99 100 101 102 103 104 105 106 107 108 109 110 111 112 113 114 115 116 117 118 119 120 121 122 123 124 125 126 127 128 129 130 131 132 133 134 135 136 137 138 139 140 141 142 143 144 145 146 147 148 149 150 151 152 153 154 155 156 157 158
$end

$molecule
read incoords.mol
$end

--------------------------------------------------------------

   24   -1855.4052391519      9.97E-09 Convergence criterion met
 Total energy in the final basis set = -1855.40523915
   25   -1855.4060487845      9.96E-09 Convergence criterion met
 Total energy in the final basis set = -1855.40604878
   24   -1855.4065576294      8.64E-09 Convergence criterion met
 Total energy in the final basis set = -1855.40655763
   20   -1855.4066131071      9.88E-09 Convergence criterion met
 Total energy in the final basis set = -1855.40661311
   23   -1855.4067223033      7.62E-09 Convergence criterion met
 Total energy in the final basis set = -1855.40672230
   19   -1855.4067738672      9.92E-09 Convergence criterion met
 Total energy in the final basis set = -1855.40677387
   19   -1855.4067753103      9.07E-09 Convergence criterion met
 Total energy in the final basis set = -1855.40677531
   19   -1855.4067749508      9.00E-09 Convergence criterion met
 Total energy in the final basis set = -1855.40677495

             Standard Nuclear Orientation (Angstroms)
    I     Atom           X                Y                Z
 ----------------------------------------------------------------
    1      N       0.0454774862    -0.3853816222    -0.0026609296
    2      C       0.0627961928    -0.3422763535     1.3969883221
    3      C       1.2237190948    -0.5960984590     2.1267331102
    4      H       2.1410252754    -0.8740233000     1.6262931744
    5      C       1.2155221733    -0.4826016370     3.5069169271
    6      H       2.1253332681    -0.6809542318     4.0589843923
    7      C       0.0606340604    -0.1071024051     4.1711608860
    8      H       0.0521304348    -0.0029614423     5.2477914257
    9      C      -1.0988028586     0.1145257920     3.4421004446
   10      H      -2.0019154383     0.3824568236     3.9732600274
   11      C      -1.1291193559    -0.0221043931     2.0613810815
   12      C      -0.8620469294     0.4267392473    -0.6908437590
   13      C      -0.5873325781     0.8995541959    -1.9741075283
   14      H       0.3263610444     0.6198715728    -2.4791521038
   15      C      -1.4858380152     1.7367426336    -2.6142363658
   16      H      -1.2595784448     2.0934263344    -3.6107275255
   17      C      -2.6548811416     2.1220337461    -1.9810934042
   18      H      -3.3547445961     2.7851266970    -2.4717384733
   19      C      -2.9341027027     1.6289690026    -0.7147447547
   20      H      -3.8633251338     1.9137833408    -0.2407010132
   21      C      -2.0676057035     0.7621590634    -0.0631881021
   22      C       1.1723379681    -0.8791484357    -0.7048559155
   23      C       2.3091101368    -0.1055893039    -0.8310787882
   24      H       2.2890720601     0.8740124871    -0.3702950383
   25      C       1.1418450340    -2.1346306492    -1.2866635699
   26      H       0.2577690874    -2.7530077857    -1.2000743112
   27      C       2.2468195380    -2.5705307178    -1.9966448761
   28      H       2.2097615972    -3.5386136071    -2.4810286754
   29      C       3.4093738742    -1.8094725495    -2.1213558699
   30      C       3.4495892536    -0.5582862528    -1.4996188552
   31      C       4.5159824676    -2.3392115819    -2.9860388509
   32      H       4.1288031795    -3.1941497514    -3.5429713199
   33      H       5.3434402482    -2.7195434328    -2.3809412499
   34      C      -2.4037572593     0.0600617818     1.2379613102
   35      C      -3.5407971323     0.7437787876     1.9891832941
   36      H      -4.4484762705     0.7583395701     1.3864167467
   37      H      -3.7916322307     0.1944060327     2.8960162433
   38      H      -3.2952121950     1.7701485381     2.2641539825
   39      C       5.0441449425    -1.2813975295    -3.9603847140
   40      H       5.4326877480    -1.7711063197    -4.8546947781
   41      H       4.2005559136    -0.6685101967    -4.3020190143
   42      C       6.1392983196    -0.4683523946    -3.3433631074
   43      C       7.3464789959    -0.3747959773    -3.9808212432
   44      H       7.4482584809    -0.8147457220    -4.9665681747
   45      C       8.4858840291     0.2316639499    -3.4113135432
   46      C       9.6780964237     0.3216876540    -4.1392709598
   47      N      10.6600871963     0.3865536087    -4.7558712967
   48      C       8.3623213619     0.7235213550    -2.0648703963
   49      C       7.1274696042     0.6528246575    -1.4353721990
   50      H       7.0654305157     1.0898104646    -0.4457054826
   51      C       6.0011046429     0.0829340538    -2.0191685929
   52      C       9.4477321270     1.2990005931    -1.3734269855
   53      N      10.3243612945     1.7825810790    -0.7918158243
   54      C       4.6580026809     0.3709821379    -1.3630496612
   55      C       4.2983934184     1.7727178740    -1.7838071229
   56      C       3.9765990129     2.2367673691    -3.0483808637
   57      H       3.9342933827     1.5669223436    -3.8962048424
   58      C       3.7208748057     3.5850905293    -3.1993845995
   59      H       3.4725565214     3.9721782162    -4.1788519083
   60      C       3.7745931932     4.4871060542    -2.1062757724
   61      H       3.5714540169     5.5342974781    -2.2807241292
   62      C       4.0736087805     4.0426517207    -0.8465636263
   63      H       4.1064320551     4.7248551286    -0.0079772704
   64      C       4.3296131763     2.6728433860    -0.6724497465
   65      C       4.6001927721     1.9244749587     0.4966137543
   66      C       4.6538301133     2.3136555966     1.8458645906
   67      H       4.4817165700     3.3413019734     2.1356604157
   68      C       4.9176799417     1.3511240369     2.7836328265
   69      H       4.9591628069     1.6142341343     3.8313605743
   70      C       5.1412197794     0.0090596377     2.4045242799
   71      H       5.3589490284    -0.7210223231     3.1727950306
   72      C       5.0900363852    -0.3890262502     1.0796857226
   73      H       5.2585097741    -1.4197124109     0.7968646572
   74      C       4.8177407093     0.5699621581     0.1270379043
   75      C      -2.8563751736    -1.3761270078     0.8974991638
   76      H      -2.0897683877    -1.9287511006     0.3548020852
   77      H      -3.7529375676    -1.3515718713     0.2752816325
   78      H      -3.0859428248    -1.9288362875     1.8100154676
 ----------------------------------------------------------------

   19   -1855.4067749419      7.87E-09 Convergence criterion met
 Total energy in the final basis set = -1855.40677494
 Final energy is   -1855.40677494188
 **  OPTIMIZATION CONVERGED  **

                    Orbital Energies (a.u.)
 --------------------------------------------------------------

 Alpha MOs
 -- Occupied --
-14.687 -14.612 -14.604 -10.520 -10.519 -10.518 -10.517 -10.514
-10.507 -10.505 -10.504 -10.501 -10.501 -10.499 -10.499 -10.499
-10.496 -10.493 -10.491 -10.489 -10.481 -10.475 -10.473 -10.469
-10.467 -10.461 -10.460 -10.459 -10.458 -10.457 -10.456 -10.454
-10.453 -10.452 -10.452 -10.452 -10.451 -10.451 -10.451 -10.450
-10.447 -10.446 -10.446 -10.445 -10.443 -10.434 -10.431  -1.100
 -1.058  -0.997  -0.997  -0.989  -0.975  -0.971  -0.967  -0.958
 -0.945  -0.921  -0.919  -0.908  -0.889  -0.873  -0.870  -0.860
 -0.857  -0.846  -0.843  -0.833  -0.827  -0.810  -0.792  -0.777
 -0.765  -0.755  -0.732  -0.726  -0.712  -0.710  -0.708  -0.698
 -0.691  -0.689  -0.680  -0.673  -0.656  -0.632  -0.626  -0.620
 -0.618  -0.609  -0.606  -0.594  -0.579  -0.567  -0.564  -0.558
 -0.549  -0.547  -0.545  -0.540  -0.538  -0.534  -0.529  -0.528
 -0.523  -0.516  -0.514  -0.510  -0.507  -0.500  -0.499  -0.497
 -0.492  -0.487  -0.483  -0.472  -0.467  -0.465  -0.462  -0.453
 -0.452  -0.448  -0.447  -0.445  -0.444  -0.443  -0.435  -0.434
 -0.428  -0.426  -0.424  -0.422  -0.411  -0.408  -0.406  -0.403
 -0.402  -0.393  -0.392  -0.389  -0.387  -0.380  -0.372  -0.368
 -0.366  -0.359  -0.350  -0.345  -0.334  -0.311  -0.307  -0.300
 -0.297  -0.294  -0.290  -0.281  -0.240  -0.129

 Beta MOs
 -- Occupied --
-14.688 -14.609 -14.600 -10.521 -10.521 -10.521 -10.520 -10.514
-10.510 -10.509 -10.503 -10.502 -10.501 -10.500 -10.499 -10.499
-10.496 -10.491 -10.491 -10.487 -10.481 -10.475 -10.474 -10.470
-10.467 -10.462 -10.460 -10.459 -10.458 -10.455 -10.454 -10.454
-10.453 -10.452 -10.452 -10.451 -10.451 -10.451 -10.450 -10.447
-10.447 -10.446 -10.445 -10.444 -10.443 -10.434 -10.431  -1.100
 -1.064  -1.002  -0.998  -0.984  -0.972  -0.968  -0.967  -0.957
 -0.945  -0.923  -0.919  -0.906  -0.890  -0.874  -0.867  -0.858
 -0.857  -0.855  -0.843  -0.832  -0.827  -0.809  -0.791  -0.777
 -0.769  -0.751  -0.733  -0.725  -0.713  -0.711  -0.707  -0.701
 -0.691  -0.688  -0.680  -0.673  -0.657  -0.632  -0.626  -0.620
 -0.617  -0.610  -0.606  -0.595  -0.579  -0.568  -0.564  -0.559
 -0.550  -0.547  -0.545  -0.541  -0.538  -0.535  -0.530  -0.529
 -0.526  -0.518  -0.514  -0.510  -0.508  -0.500  -0.499  -0.497
 -0.494  -0.488  -0.484  -0.477  -0.470  -0.467  -0.462  -0.456
 -0.453  -0.452  -0.448  -0.445  -0.444  -0.439  -0.435  -0.432
 -0.426  -0.425  -0.424  -0.423  -0.411  -0.408  -0.403  -0.402
 -0.400  -0.390  -0.388  -0.388  -0.385  -0.380  -0.376  -0.371
 -0.364  -0.357  -0.348  -0.344  -0.338  -0.321  -0.307  -0.306
 -0.297  -0.297  -0.290  -0.282  -0.248  -0.240

          Ground-State Mulliken Net Atomic Charges

     Atom                 Charge (a.u.)    Spin (a.u.)
  --------------------------------------------------------
      1 N                    -0.700065      -0.000527
      2 C                     0.311056       0.000270
      3 C                    -0.300949      -0.000450
      4 H                     0.256166       0.000062
      5 C                    -0.247519      -0.000244
      6 H                     0.220620       0.000057
      7 C                    -0.232352       0.000079
      8 H                     0.226622      -0.000011
      9 C                    -0.335307      -0.000084
     10 H                     0.228948       0.000002
     11 C                     0.154050       0.000039
     12 C                     0.310269       0.000115
     13 C                    -0.297781       0.000024
     14 H                     0.251162       0.000017
     15 C                    -0.247931      -0.000123
     16 H                     0.228757       0.000006
     17 C                    -0.232894       0.000118
     18 H                     0.227068      -0.000010
     19 C                    -0.334157      -0.000115
     20 H                     0.227793       0.000009
     21 C                     0.157293       0.000096
     22 C                     0.202298       0.011773
     23 C                    -0.282072      -0.018514
     24 H                     0.270124       0.000713
     25 C                    -0.238567      -0.023318
     26 H                     0.249549       0.001324
     27 C                    -0.312913      -0.005392
     28 H                     0.241121       0.000638
     29 C                     0.068910       0.000965
     30 C                     0.218983      -0.012608
     31 C                    -0.513498       0.007750
     32 H                     0.247496      -0.001175
     33 H                     0.261226      -0.000826
     34 C                    -0.224139      -0.000005
     35 C                    -0.671885       0.000002
     36 H                     0.235576      -0.000002
     37 H                     0.235158      -0.000001
     38 H                     0.239387       0.000000
     39 C                    -0.540015      -0.013943
     40 H                     0.255290       0.000557
     41 H                     0.224569       0.012083
     42 C                     0.098943       0.164002
     43 C                    -0.330493      -0.085602
     44 H                     0.227594       0.003824
     45 C                     0.000665       0.311515
     46 C                    -0.044558      -0.087672
     47 N                    -0.257096       0.179523
     48 C                     0.020153       0.200316
     49 C                    -0.296029      -0.154382
     50 H                     0.236034       0.009577
     51 C                     0.119637       0.226406
     52 C                    -0.036498      -0.058284
     53 N                    -0.247384       0.115979
     54 C                    -0.412930       0.030777
     55 C                     0.196862      -0.214999
     56 C                    -0.264266       0.161651
     57 H                     0.264921      -0.007286
     58 C                    -0.194409      -0.255594
     59 H                     0.274964       0.013787
     60 C                    -0.216615       0.034741
     61 H                     0.270494      -0.001248
     62 C                    -0.291129      -0.039786
     63 H                     0.251976       0.003806
     64 C                     0.143287      -0.098950
     65 C                     0.174097      -0.076116
     66 C                    -0.298364      -0.046687
     67 H                     0.254061       0.003939
     68 C                    -0.205042       0.023689
     69 H                     0.271279      -0.000230
     70 C                    -0.214325      -0.230010
     71 H                     0.275704       0.012460
     72 C                    -0.240090       0.132005
     73 H                     0.271996      -0.005138
     74 C                     0.075687      -0.225372
     75 C                    -0.603589       0.000007
     76 H                     0.235261      -0.000001
     77 H                     0.226021      -0.000000
     78 H                     0.225735       0.000000
  --------------------------------------------------------
  Sum of atomic charges =    -0.000000

                    Cartesian Multipole Moments
 -----------------------------------------------------------------
    Charge (ESU x 10^10)
                -0.0000
    Dipole Moment (Debye)
         X     -19.6540      Y       1.6736      Z       7.4138
       Tot      21.0724
    Quadrupole Moments (Debye-Ang)
        XX    -554.2043     XY     -19.2329     YY    -236.7517
        XZ      91.9034     YZ       2.5956     ZZ    -265.8806

 Total job time:  15344.37s(wall), 61672.71s(cpu)
        *  Thank you very much for using Q-Chem.  Have a nice day.  *
