 Q-Chem 5.1, Q-Chem, Inc., Pleasanton, CA (2018)
 Q-Chem 5.1.1 for Intel X86 EM64T Linux

User input:
--------------------------------------------------------------
$rem
threads 8
jobtype	sp
method PBEh-3c
basis def2-mSVP
mem_static	1024
mem_total	8000
sym_ignore	true
unrestricted true
scf_convergence	9
solvent_method	pcm
$end

$molecule
read s1_tol.mol
$end

$solvent
dielectric	2.38
$end

$pcm
theory iefpcm
$end
--------------------------------------------------------------

   16   -3082.4721443381      6.40e-10  Convergence criterion met
 Total energy in the final basis set =    -3082.4721443381
 Total job time:  4404.45s(wall), 32104.03s(cpu)
        *  Thank you very much for using Q-Chem.  Have a nice day.  *
 Q-Chem 5.1, Q-Chem, Inc., Pleasanton, CA (2018)
 Q-Chem 5.1.1 for Intel X86 EM64T Linux

User input:
--------------------------------------------------------------

$rem
threads 8
jobtype opt
method PBEh-3c
basis def2-mSVP
scf_guess	read
mem_static      1024
mem_total       8000
sym_ignore      true
unrestricted true
mom_start       1
scf_algorithm	diis
scf_max_cycles	250
solvent_method	pcm
geom_opt_tol_energy 25
geom_opt_tol_gradient 75
$end

$solvent
dielectric      2.38
$end

$pcm
theory iefpcm
$end

$occupied
1 2 3 4 5 6 7 8 9 10 11 12 13 14 15 16 17 18 19 20 21 22 23 24 25 26 27 28 29 30 31 32 33 34 35 36 37 38 39 40 41 42 43 44 45 46 47 48 49 50 51 52 53 54 55 56 57 58 59 60 61 62 63 64 65 66 67 68 69 70 71 72 73 74 75 76 77 78 79 80 81 82 83 84 85 86 87 88 89 90 91 92 93 94 95 96 97 98 99 100 101 102 103 104 105 106 107 108 109 110 111 112 113 114 115 116 117 118 119 120 121 122 123 124 125 126 127 128 129 130 131 132 133 134 135 136 137 138 139 140 141 142 143 144 145 146 147 148 149 150 151 152 153 154 155 156 157 158 159 160 161 162 163 164 165 166 167 168 169 170 171 172 173 174 175 176 177 178 179 180 181 182 183 184 185 186 187 188 189 190 191 192 193 194 195 196 197 198 199 200 201 202 203 204 205 206 207 208 209 210 211 212 213 214 215 216 217 218 219 220 221 222 223 224 225 226 227 228 229 230 231 232 233 234 235 236 237 238 239 240 241 242 243 244 245 246 247 248 249 250 251 252 253 254 255 256 257 258 259 260 261 262 263 264 265 266 267  269
1 2 3 4 5 6 7 8 9 10 11 12 13 14 15 16 17 18 19 20 21 22 23 24 25 26 27 28 29 30 31 32 33 34 35 36 37 38 39 40 41 42 43 44 45 46 47 48 49 50 51 52 53 54 55 56 57 58 59 60 61 62 63 64 65 66 67 68 69 70 71 72 73 74 75 76 77 78 79 80 81 82 83 84 85 86 87 88 89 90 91 92 93 94 95 96 97 98 99 100 101 102 103 104 105 106 107 108 109 110 111 112 113 114 115 116 117 118 119 120 121 122 123 124 125 126 127 128 129 130 131 132 133 134 135 136 137 138 139 140 141 142 143 144 145 146 147 148 149 150 151 152 153 154 155 156 157 158 159 160 161 162 163 164 165 166 167 168 169 170 171 172 173 174 175 176 177 178 179 180 181 182 183 184 185 186 187 188 189 190 191 192 193 194 195 196 197 198 199 200 201 202 203 204 205 206 207 208 209 210 211 212 213 214 215 216 217 218 219 220 221 222 223 224 225 226 227 228 229 230 231 232 233 234 235 236 237 238 239 240 241 242 243 244 245 246 247 248 249 250 251 252 253 254 255 256 257 258 259 260 261 262 263 264 265 266 267 268
$end

$molecule
read
$end

--------------------------------------------------------------

             Standard Nuclear Orientation (Angstroms)
    I     Atom           X                Y                Z
 ----------------------------------------------------------------
    1      C     -12.2181670000    -1.8848870000   -10.8277810000
    2      C     -11.3454900000    -1.4774250000    -9.8063960000
    3      N     -10.3785850000    -2.4461140000    -9.6305510000
    4      C     -10.6223840000    -3.4754330000   -10.5109480000
    5      C     -11.7554610000    -3.1681440000   -11.2793950000
    6      C     -12.2127880000    -4.0732150000   -12.2359180000
    7      C     -11.5480390000    -5.2719580000   -12.4303070000
    8      C     -10.4117590000    -5.5482470000   -11.6512180000
    9      C      -9.9349940000    -4.6718900000   -10.6952540000
   10      C     -13.3121240000    -1.0949050000   -11.1689510000
   11      C     -13.5413850000     0.0918550000   -10.4954510000
   12      C     -12.6554200000     0.4712090000    -9.4727530000
   13      C     -11.5604220000    -0.2922660000    -9.1132060000
   14      C      -9.3840680000    -2.4346580000    -8.6293760000
   15      C      -8.3984150000    -1.4624550000    -8.6562700000
   16      C      -7.4536620000    -1.3953440000    -7.6401880000
   17      C      -7.4826740000    -2.3216730000    -6.5877630000
   18      C      -8.4573730000    -3.3280510000    -6.5965290000
   19      C      -9.4078920000    -3.3746400000    -7.6108600000
   20      B      -6.4746360000    -2.1339710000    -5.3849660000
   21      C      -5.0727580000    -2.7502380000    -5.3998570000
   22      C      -4.7041940000    -3.6550800000    -6.4112030000
   23      C      -3.4557890000    -4.2258980000    -6.4184740000
   24      C      -2.5040680000    -3.8951440000    -5.4080850000
   25      C      -2.8384820000    -2.9965830000    -4.4246440000
   26      C      -4.1242580000    -2.4096560000    -4.3868260000
   27      C      -1.2924180000    -4.6763890000    -5.6675850000
   28      C      -1.5550090000    -5.4448320000    -6.8210990000
   29      C      -2.8546910000    -5.2069170000    -7.3123140000
   30      C      -0.6630650000    -6.3498490000    -7.3908100000
   31      C       0.5900280000    -6.4768890000    -6.7447380000
   32      C       0.8594620000    -5.7331170000    -5.6183370000
   33      C      -0.0713250000    -4.8258270000    -5.0596860000
   34      C      -3.2764330000    -5.8971830000    -8.4226040000
   35      C      -2.3863770000    -6.8154470000    -9.0249510000
   36      C      -1.1196250000    -7.0458370000    -8.5382080000
   37      B      -4.5222330000    -1.4102530000    -3.2956720000
   38      C      -5.9501870000    -0.8763540000    -3.1979920000
   39      C      -6.3600590000    -0.0273070000    -2.1435040000
   40      C      -7.6554720000     0.4252040000    -2.0703780000
   41      C      -8.5914110000     0.0485090000    -3.0794130000
   42      C      -8.2091010000    -0.7552730000    -4.1232580000
   43      C      -6.8928780000    -1.2414290000    -4.2081760000
   44      C      -9.8797040000     0.6478270000    -2.7613710000
   45      C      -9.6945010000     1.3720400000    -1.5675320000
   46      C      -8.3650350000     1.2713930000    -1.1056740000
   47      C     -10.7061430000     2.0844990000    -0.9283290000
   48      C     -11.9817260000     2.0590160000    -1.5452420000
   49      C     -12.1685990000     1.3537400000    -2.7123970000
   50      C     -11.1254710000     0.6358660000    -3.3404880000
   51      C      -8.0397020000     1.9246630000     0.0564470000
   52      C      -9.0450620000     2.6599130000     0.7282680000
   53      C     -10.3386140000     2.7473900000     0.2665540000
   54      C      -6.4074780000    -0.3172520000    -7.6751030000
   55      C      -8.5020220000    -4.3409570000    -5.4871050000
   56      C      -3.3857500000    -0.8731720000    -2.3407330000
   57      C      -3.0869710000    -1.4942180000    -1.1076410000
   58      C      -2.0122120000    -1.0635090000    -0.3560290000
   59      C      -1.2009710000    -0.0271660000    -0.8359550000
   60      C      -1.5092070000     0.6187650000    -2.0405680000
   61      C      -2.6000900000     0.2171340000    -2.7788760000
   62      N      -0.0687050000     0.3578100000    -0.1401560000
   63      C       0.0205080000     0.6047450000     1.2243110000
   64      C       1.3209480000     1.0362010000     1.5224330000
   65      C       2.0603950000     1.0357670000     0.2705080000
   66      C       1.1657460000     0.6104310000    -0.7208660000
   67      C       1.6339430000     1.4132210000     2.8102220000
   68      C       0.6491430000     1.3631410000     3.8017660000
   69      C      -0.6461990000     0.9540950000     3.4646630000
   70      C      -0.9882630000     0.5842280000     2.1770500000
   71      C       3.3626410000     1.3335800000    -0.0722660000
   72      C       3.7757400000     1.1967850000    -1.4019250000
   73      C       2.8689110000     0.7268050000    -2.3590560000
   74      C       1.5616310000     0.4138060000    -2.0392160000
   75      C      -3.9190000000    -2.6567710000    -0.6590380000
   76      C      -2.9514990000     0.9232100000    -4.0533520000
   77      H      -2.0066180000     0.3157770000     1.9323660000
   78      H      -1.4113830000     0.9436120000     4.2304310000
   79      H       0.8919840000     0.0197570000    -2.7909260000
   80      H       3.2021470000     0.5933020000    -3.3805570000
   81      C       5.1772960000     1.5262580000    -1.8107600000
   82      H       4.0681890000     1.6658240000     0.6787060000
   83      C       0.9587960000     1.7641600000     5.2101020000
   84      H       2.6289210000     1.7633900000     3.0546630000
   85      H      -0.9207680000     1.4690370000    -2.3619660000
   86      H      -1.7410530000    -1.5849960000     0.5532460000
   87      H      -3.5850180000    -3.0565340000     0.2979000000
   88      H      -4.9673660000    -2.3694340000    -0.5628050000
   89      H      -3.8860850000    -3.4618370000    -1.3951050000
   90      H      -2.2868010000     1.7648830000    -4.2452580000
   91      H      -3.9765060000     1.2949220000    -4.0251410000
   92      H      -2.8917130000     0.2398670000    -4.9022210000
   93      H      -5.6430600000     0.2606390000    -1.3803380000
   94      H      -8.9290720000    -1.0240520000    -4.8899350000
   95      H     -11.3255430000     0.0925770000    -4.2563100000
   96      H      -7.0394190000     1.8899960000     0.4700260000
   97      H     -13.1505030000     1.3434870000    -3.1689550000
   98      H     -12.8114270000     2.5925810000    -1.0974610000
   99      H      -8.7820030000     3.1727000000     1.6448030000
  100      H     -11.0738400000     3.3215910000     0.8173550000
  101      H      -5.4234580000    -3.9066270000    -7.1851910000
  102      H      -2.1100630000    -2.7458270000    -3.6594650000
  103      H       0.1912340000    -4.2760780000    -4.1641920000
  104      H      -4.2666280000    -5.7589580000    -8.8396820000
  105      H       1.3333330000    -7.1633740000    -7.1318140000
  106      H       1.8207490000    -5.8484550000    -5.1336700000
  107      H      -2.7195810000    -7.3594810000    -9.8999230000
  108      H      -0.4739160000    -7.7635560000    -9.0295810000
  109      H      -8.3771890000    -0.7505130000    -9.4736970000
  110      H     -10.1837840000    -4.1325310000    -7.5992020000
  111      H     -10.9034360000     0.0215750000    -8.3127760000
  112      H     -12.8401860000     1.3961570000    -8.9386800000
  113      H      -9.0595520000    -4.9180400000   -10.1086370000
  114      H      -9.8902280000    -6.4868430000   -11.8015000000
  115      C     -12.0173900000    -6.2677490000   -13.4534040000
  116      H     -13.0944140000    -3.8434980000   -12.8245520000
  117      C     -14.7151120000     0.9646880000   -10.8384040000
  118      H     -13.9907920000    -1.4169090000   -11.9514030000
  119      H      -9.2879450000    -5.0791280000    -5.6474220000
  120      H      -8.6848710000    -3.8638210000    -4.5221000000
  121      H      -7.5535640000    -4.8739640000    -5.3989950000
  122      H      -6.5021510000     0.3026720000    -8.5668100000
  123      H      -6.4835270000     0.3364750000    -6.8040820000
  124      H      -5.4018130000    -0.7409070000    -7.6660620000
  125      H     -15.3445090000     0.5027150000   -11.5986900000
  126      H     -15.3419190000     1.1564560000    -9.9657250000
  127      H     -14.3953600000     1.9346540000   -11.2238840000
  128      H     -12.9506520000    -5.9513270000   -13.9185340000
  129      H     -11.2829200000    -6.3995310000   -14.2503250000
  130      H     -12.1886010000    -7.2498670000   -13.0092000000
  131      H       1.9871500000     2.1039790000     5.3170910000
  132      H       0.3025830000     2.5703330000     5.5408920000
  133      H       0.8101370000     0.9277420000     5.8947310000
  134      H       5.7749310000     1.8747680000    -0.9706260000
  135      H       5.6750720000     0.6545090000    -2.2380980000
  136      H       5.1862790000     2.3055990000    -2.5742870000
 ----------------------------------------------------------------

   21   -3082.3906499234      6.62E-09 Convergence criterion met
 Total energy in the final basis set = -3082.39064992
 Final energy is   -3082.39064992341
 **  OPTIMIZATION CONVERGED  **

                    Orbital Energies (a.u.)
 --------------------------------------------------------------

 Alpha MOs
 -- Occupied --
-14.776 -14.675 -10.538 -10.534 -10.534 -10.502 -10.501 -10.500
-10.499 -10.496 -10.495 -10.491 -10.490 -10.484 -10.483 -10.483
-10.481 -10.481 -10.479 -10.471 -10.471 -10.471 -10.456 -10.456
-10.456 -10.449 -10.448 -10.447 -10.446 -10.446 -10.446 -10.445
-10.445 -10.444 -10.444 -10.443 -10.443 -10.442 -10.442 -10.442
-10.442 -10.441 -10.441 -10.439 -10.439 -10.438 -10.438 -10.436
-10.436 -10.435 -10.435 -10.435 -10.435 -10.435 -10.434 -10.434
-10.433 -10.433 -10.433 -10.432 -10.432 -10.432 -10.431 -10.431
-10.430 -10.427 -10.426 -10.426 -10.425 -10.421 -10.420 -10.411
-10.410 -10.406 -10.406 -10.406 -10.400 -10.400  -6.900  -6.893
 -1.168  -1.095  -1.018  -1.001  -0.996  -0.995  -0.983  -0.960
 -0.943  -0.939  -0.936  -0.935  -0.933  -0.916  -0.915  -0.912
 -0.899  -0.894  -0.885  -0.879  -0.876  -0.867  -0.861  -0.859
 -0.854  -0.841  -0.833  -0.832  -0.830  -0.829  -0.821  -0.815
 -0.807  -0.802  -0.798  -0.793  -0.791  -0.788  -0.780  -0.778
 -0.763  -0.761  -0.757  -0.749  -0.746  -0.734  -0.713  -0.710
 -0.708  -0.708  -0.705  -0.700  -0.699  -0.683  -0.679  -0.670
 -0.666  -0.660  -0.655  -0.652  -0.643  -0.642  -0.631  -0.630
 -0.628  -0.628  -0.624  -0.623  -0.596  -0.581  -0.579  -0.579
 -0.578  -0.576  -0.575  -0.575  -0.571  -0.564  -0.556  -0.555
 -0.555  -0.547  -0.543  -0.541  -0.540  -0.539  -0.537  -0.529
 -0.523  -0.523  -0.518  -0.516  -0.508  -0.507  -0.502  -0.500
 -0.500  -0.498  -0.494  -0.491  -0.488  -0.487  -0.487  -0.486
 -0.483  -0.482  -0.477  -0.474  -0.473  -0.472  -0.470  -0.469
 -0.469  -0.466  -0.466  -0.465  -0.465  -0.464  -0.464  -0.462
 -0.459  -0.455  -0.455  -0.454  -0.453  -0.452  -0.449  -0.447
 -0.446  -0.446  -0.443  -0.439  -0.436  -0.436  -0.432  -0.430
 -0.427  -0.424  -0.422  -0.420  -0.419  -0.416  -0.410  -0.408
 -0.407  -0.406  -0.403  -0.403  -0.394  -0.390  -0.389  -0.387
 -0.381  -0.381  -0.380  -0.379  -0.377  -0.375  -0.375  -0.373
 -0.369  -0.365  -0.354  -0.353  -0.351  -0.346  -0.330  -0.324
 -0.323  -0.317  -0.315  -0.309  -0.303  -0.299  -0.297  -0.289
 -0.282  -0.281  -0.280  -0.266  -0.265  -0.262  -0.249  -0.239
 -0.238  -0.234  -0.221  -0.145

 Beta MOs
 -- Occupied --
-14.785 -14.675 -10.538 -10.533 -10.532 -10.503 -10.502 -10.502
-10.502 -10.498 -10.498 -10.490 -10.490 -10.482 -10.482 -10.482
-10.482 -10.481 -10.480 -10.471 -10.471 -10.471 -10.460 -10.456
-10.456 -10.450 -10.449 -10.447 -10.446 -10.446 -10.446 -10.445
-10.445 -10.444 -10.443 -10.443 -10.443 -10.443 -10.442 -10.442
-10.442 -10.441 -10.441 -10.439 -10.439 -10.438 -10.437 -10.436
-10.436 -10.435 -10.435 -10.435 -10.435 -10.435 -10.434 -10.434
-10.433 -10.433 -10.433 -10.432 -10.432 -10.431 -10.431 -10.430
-10.430 -10.427 -10.427 -10.426 -10.425 -10.421 -10.420 -10.411
-10.410 -10.407 -10.406 -10.406 -10.400 -10.399  -6.897  -6.891
 -1.182  -1.095  -1.022  -1.004  -0.995  -0.994  -0.987  -0.960
 -0.943  -0.940  -0.937  -0.935  -0.932  -0.915  -0.915  -0.914
 -0.900  -0.898  -0.885  -0.879  -0.876  -0.872  -0.862  -0.859
 -0.854  -0.841  -0.832  -0.831  -0.829  -0.828  -0.821  -0.816
 -0.809  -0.802  -0.796  -0.793  -0.791  -0.790  -0.782  -0.778
 -0.763  -0.761  -0.758  -0.749  -0.745  -0.737  -0.712  -0.711
 -0.709  -0.707  -0.705  -0.701  -0.699  -0.684  -0.679  -0.669
 -0.669  -0.659  -0.652  -0.652  -0.642  -0.642  -0.633  -0.632
 -0.629  -0.628  -0.624  -0.624  -0.598  -0.592  -0.582  -0.579
 -0.578  -0.575  -0.575  -0.574  -0.569  -0.564  -0.557  -0.556
 -0.555  -0.551  -0.547  -0.542  -0.542  -0.538  -0.536  -0.529
 -0.526  -0.523  -0.519  -0.515  -0.508  -0.507  -0.507  -0.505
 -0.500  -0.498  -0.496  -0.494  -0.489  -0.487  -0.486  -0.486
 -0.483  -0.481  -0.477  -0.474  -0.473  -0.472  -0.470  -0.469
 -0.468  -0.466  -0.465  -0.465  -0.464  -0.464  -0.463  -0.461
 -0.459  -0.455  -0.455  -0.455  -0.454  -0.453  -0.452  -0.449
 -0.446  -0.446  -0.445  -0.442  -0.439  -0.435  -0.435  -0.430
 -0.428  -0.424  -0.422  -0.420  -0.419  -0.414  -0.413  -0.408
 -0.407  -0.406  -0.404  -0.403  -0.400  -0.393  -0.390  -0.386
 -0.381  -0.380  -0.378  -0.377  -0.376  -0.375  -0.374  -0.373
 -0.372  -0.369  -0.353  -0.353  -0.346  -0.343  -0.337  -0.329
 -0.328  -0.316  -0.316  -0.313  -0.309  -0.297  -0.297  -0.293
 -0.281  -0.281  -0.279  -0.278  -0.265  -0.262  -0.254  -0.241
 -0.239  -0.235  -0.227  -0.221

          Ground-State Mulliken Net Atomic Charges

     Atom                 Charge (a.u.)    Spin (a.u.)
  --------------------------------------------------------
      1 C                     0.099061      -0.000005
      2 C                     0.321944       0.000016
      3 N                    -0.730180      -0.000038
      4 C                     0.322605       0.000014
      5 C                     0.099731      -0.000005
      6 C                    -0.416239       0.000002
      7 C                     0.109652      -0.000008
      8 C                    -0.292652       0.000006
      9 C                    -0.276668      -0.000007
     10 C                    -0.414595       0.000003
     11 C                     0.109737      -0.000008
     12 C                    -0.294220       0.000006
     13 C                    -0.276751      -0.000008
     14 C                     0.297669       0.000466
     15 C                    -0.360834      -0.000638
     16 C                     0.029456       0.002906
     17 C                    -0.181219      -0.023398
     18 C                     0.038154       0.003066
     19 C                    -0.345102      -0.000677
     20 B                     0.576104       0.276849
     21 C                    -0.145441       0.063101
     22 C                    -0.401893      -0.060479
     23 C                     0.065811       0.095043
     24 C                     0.088021       0.037828
     25 C                    -0.408629      -0.015526
     26 C                    -0.131514       0.000657
     27 C                     0.188257      -0.043553
     28 C                    -0.076935       0.023831
     29 C                     0.184611      -0.058569
     30 C                     0.236717      -0.038529
     31 C                    -0.356755       0.064404
     32 C                    -0.216681      -0.045932
     33 C                    -0.407204       0.068912
     34 C                    -0.396777       0.087726
     35 C                    -0.218123      -0.054149
     36 C                    -0.354003       0.080361
     37 B                     0.549500       0.358435
     38 C                    -0.134802      -0.006756
     39 C                    -0.415675      -0.010810
     40 C                     0.089120       0.033598
     41 C                     0.065406       0.095127
     42 C                    -0.395376      -0.060469
     43 C                    -0.140056       0.064740
     44 C                     0.185859      -0.057928
     45 C                    -0.076136       0.023054
     46 C                     0.187658      -0.041774
     47 C                     0.237311      -0.037217
     48 C                    -0.353395       0.078427
     49 C                    -0.218889      -0.052920
     50 C                    -0.397406       0.085948
     51 C                    -0.407251       0.065694
     52 C                    -0.216168      -0.044063
     53 C                    -0.356631       0.061180
     54 C                    -0.762100       0.000543
     55 C                    -0.752641       0.000479
     56 C                    -0.134726      -0.273093
     57 C                     0.045520       0.067919
     58 C                    -0.360154      -0.092416
     59 C                     0.348840      -0.025246
     60 C                    -0.378061      -0.093637
     61 C                     0.032132       0.074650
     62 N                    -0.668925      -0.330426
     63 C                     0.313829       0.099222
     64 C                     0.138054      -0.084774
     65 C                     0.142726      -0.088921
     66 C                     0.307111       0.099664
     67 C                    -0.404061       0.038215
     68 C                     0.125309      -0.160529
     69 C                    -0.282398       0.097873
     70 C                    -0.243745      -0.152053
     71 C                    -0.406432       0.039590
     72 C                     0.126570      -0.168276
     73 C                    -0.283024       0.102063
     74 C                    -0.240350      -0.156871
     75 C                    -0.751095      -0.003855
     76 C                    -0.758554      -0.004730
     77 H                     0.289089       0.007995
     78 H                     0.255879      -0.004492
     79 H                     0.296891       0.008260
     80 H                     0.258467      -0.004684
     81 C                    -0.716672       0.013958
     82 H                     0.243098      -0.001809
     83 C                    -0.716352       0.013349
     84 H                     0.243452      -0.001795
     85 H                     0.280255       0.005653
     86 H                     0.273639       0.005748
     87 H                     0.236925       0.002343
     88 H                     0.267180      -0.000440
     89 H                     0.271393       0.000816
     90 H                     0.238729       0.002695
     91 H                     0.271006       0.001110
     92 H                     0.273503      -0.000665
     93 H                     0.195236      -0.000049
     94 H                     0.224488       0.002375
     95 H                     0.230269      -0.005039
     96 H                     0.214754      -0.003908
     97 H                     0.233779       0.002562
     98 H                     0.226028      -0.004661
     99 H                     0.227819       0.002192
    100 H                     0.226827      -0.003581
    101 H                     0.219754       0.002367
    102 H                     0.194977       0.000640
    103 H                     0.214020      -0.004111
    104 H                     0.228044      -0.005152
    105 H                     0.226698      -0.003776
    106 H                     0.227544       0.002281
    107 H                     0.233137       0.002624
    108 H                     0.226048      -0.004776
    109 H                     0.234575       0.000301
    110 H                     0.236018       0.000366
    111 H                     0.248430       0.000000
    112 H                     0.221831      -0.000000
    113 H                     0.246646       0.000000
    114 H                     0.220824      -0.000000
    115 C                    -0.715432       0.000001
    116 H                     0.210413      -0.000000
    117 C                    -0.715587       0.000001
    118 H                     0.210911      -0.000000
    119 H                     0.233311       0.001261
    120 H                     0.248582      -0.000604
    121 H                     0.245373      -0.000653
    122 H                     0.235145       0.001607
    123 H                     0.249065      -0.000876
    124 H                     0.248219      -0.000758
    125 H                     0.229865      -0.000000
    126 H                     0.231719      -0.000000
    127 H                     0.232924      -0.000000
    128 H                     0.230045      -0.000000
    129 H                     0.233054      -0.000000
    130 H                     0.231591      -0.000000
    131 H                     0.245781      -0.000254
    132 H                     0.254905      -0.007396
    133 H                     0.255721      -0.007951
    134 H                     0.245712      -0.000258
    135 H                     0.256324      -0.008172
    136 H                     0.256117      -0.007965
  --------------------------------------------------------
  Sum of atomic charges =    -0.000000

                    Cartesian Multipole Moments
 -----------------------------------------------------------------
    Charge (ESU x 10^10)
                -0.0000
    Dipole Moment (Debye)
         X      23.1239      Y       8.6791      Z      18.3437
       Tot      30.7658
    Quadrupole Moments (Debye-Ang)
        XX    -570.5554     XY     -26.9404     YY    -470.1440
        XZ    -111.1812     YZ     -23.8246     ZZ    -530.9002

 Total job time:  4816.21s(wall), 18654.45s(cpu)
        *  Thank you very much for using Q-Chem.  Have a nice day.  *
