 Q-Chem 5.1, Q-Chem, Inc., Pleasanton, CA (2018)
 Q-Chem 5.1.1 for Intel X86 EM64T Linux

User input:
--------------------------------------------------------------
$rem
threads 8
jobtype	sp
method PBEh-3c
basis def2-mSVP
mem_static	1024
mem_total	8000
sym_ignore	true
unrestricted true
scf_convergence	9
solvent_method	pcm
$end

$molecule
read incoords.mol
$end

$solvent
dielectric	1.0001
$end

$pcm
theory iefpcm
heavypoints 194
hpoints	    194
$end
--------------------------------------------------------------

   16   -3082.4494704034      7.38e-10  Convergence criterion met
 Total energy in the final basis set =    -3082.4494704034

                    Orbital Energies (a.u.)
 --------------------------------------------------------------

 Alpha MOs
 -- Occupied --
-14.682 -14.682 -10.491 -10.490 -10.477 -10.477 -10.477 -10.476
-10.469 -10.469 -10.469 -10.469 -10.469 -10.469 -10.468 -10.468
-10.467 -10.467 -10.466 -10.466 -10.466 -10.466 -10.466 -10.466
-10.464 -10.464 -10.463 -10.463 -10.463 -10.463 -10.462 -10.462
-10.462 -10.461 -10.461 -10.461 -10.459 -10.458 -10.451 -10.450
-10.447 -10.447 -10.446 -10.446 -10.443 -10.442 -10.442 -10.442
-10.441 -10.441 -10.441 -10.440 -10.440 -10.440 -10.439 -10.439
-10.439 -10.438 -10.438 -10.438 -10.438 -10.438 -10.438 -10.438
-10.438 -10.437 -10.437 -10.437 -10.435 -10.435 -10.434 -10.434
-10.432 -10.431 -10.422 -10.422 -10.422 -10.422  -6.957  -6.955
 -1.102  -1.102  -1.020  -1.020  -0.976  -0.975  -0.966  -0.964
 -0.951  -0.951  -0.948  -0.947  -0.937  -0.937  -0.914  -0.906
 -0.895  -0.893  -0.882  -0.881  -0.868  -0.868  -0.862  -0.859
 -0.852  -0.851  -0.850  -0.850  -0.839  -0.838  -0.826  -0.818
 -0.817  -0.810  -0.810  -0.810  -0.781  -0.780  -0.776  -0.775
 -0.766  -0.765  -0.761  -0.759  -0.740  -0.733  -0.731  -0.725
 -0.712  -0.711  -0.696  -0.694  -0.690  -0.684  -0.675  -0.671
 -0.659  -0.658  -0.656  -0.656  -0.654  -0.653  -0.640  -0.640
 -0.639  -0.638  -0.601  -0.600  -0.597  -0.594  -0.592  -0.592
 -0.589  -0.584  -0.583  -0.580  -0.579  -0.559  -0.557  -0.555
 -0.554  -0.548  -0.539  -0.538  -0.534  -0.533  -0.531  -0.526
 -0.518  -0.514  -0.511  -0.511  -0.507  -0.503  -0.501  -0.497
 -0.496  -0.495  -0.495  -0.494  -0.494  -0.493  -0.493  -0.488
 -0.488  -0.488  -0.486  -0.485  -0.482  -0.480  -0.480  -0.480
 -0.480  -0.479  -0.476  -0.474  -0.473  -0.473  -0.473  -0.473
 -0.473  -0.471  -0.467  -0.467  -0.467  -0.460  -0.451  -0.446
 -0.446  -0.446  -0.441  -0.436  -0.435  -0.432  -0.429  -0.428
 -0.428  -0.427  -0.427  -0.418  -0.415  -0.415  -0.410  -0.409
 -0.405  -0.404  -0.402  -0.399  -0.399  -0.398  -0.398  -0.397
 -0.397  -0.394  -0.394  -0.394  -0.389  -0.388  -0.386  -0.382
 -0.381  -0.374  -0.365  -0.363  -0.361  -0.356  -0.352  -0.348
 -0.324  -0.320  -0.320  -0.318  -0.299  -0.298  -0.288  -0.288
 -0.286  -0.285  -0.283  -0.282  -0.282  -0.267  -0.262  -0.260
 -0.244  -0.243  -0.226  -0.225

 Beta MOs
 -- Occupied --
-14.682 -14.682 -10.491 -10.490 -10.477 -10.477 -10.477 -10.476
-10.469 -10.469 -10.469 -10.469 -10.469 -10.469 -10.468 -10.468
-10.467 -10.467 -10.466 -10.466 -10.466 -10.466 -10.466 -10.466
-10.464 -10.464 -10.463 -10.463 -10.463 -10.463 -10.462 -10.462
-10.462 -10.461 -10.461 -10.461 -10.459 -10.458 -10.451 -10.450
-10.447 -10.447 -10.446 -10.446 -10.443 -10.442 -10.442 -10.442
-10.441 -10.441 -10.441 -10.440 -10.440 -10.440 -10.439 -10.439
-10.439 -10.438 -10.438 -10.438 -10.438 -10.438 -10.438 -10.438
-10.438 -10.437 -10.437 -10.437 -10.435 -10.435 -10.434 -10.434
-10.432 -10.431 -10.422 -10.422 -10.422 -10.422  -6.957  -6.955
 -1.102  -1.102  -1.020  -1.020  -0.976  -0.975  -0.966  -0.964
 -0.951  -0.951  -0.948  -0.947  -0.937  -0.937  -0.914  -0.906
 -0.895  -0.893  -0.882  -0.881  -0.868  -0.868  -0.862  -0.859
 -0.852  -0.851  -0.850  -0.850  -0.839  -0.838  -0.826  -0.818
 -0.817  -0.810  -0.810  -0.810  -0.781  -0.780  -0.776  -0.775
 -0.766  -0.765  -0.761  -0.759  -0.740  -0.733  -0.731  -0.725
 -0.712  -0.711  -0.696  -0.694  -0.690  -0.684  -0.675  -0.671
 -0.659  -0.658  -0.656  -0.656  -0.654  -0.653  -0.640  -0.640
 -0.639  -0.638  -0.601  -0.600  -0.597  -0.594  -0.592  -0.592
 -0.589  -0.584  -0.583  -0.580  -0.579  -0.559  -0.557  -0.555
 -0.554  -0.548  -0.539  -0.538  -0.534  -0.533  -0.531  -0.526
 -0.518  -0.514  -0.511  -0.511  -0.507  -0.503  -0.501  -0.497
 -0.496  -0.495  -0.495  -0.494  -0.494  -0.493  -0.493  -0.488
 -0.488  -0.488  -0.486  -0.485  -0.482  -0.480  -0.480  -0.480
 -0.480  -0.479  -0.476  -0.474  -0.473  -0.473  -0.473  -0.473
 -0.473  -0.471  -0.467  -0.467  -0.467  -0.460  -0.451  -0.446
 -0.446  -0.446  -0.441  -0.436  -0.435  -0.432  -0.429  -0.428
 -0.428  -0.427  -0.427  -0.418  -0.415  -0.415  -0.410  -0.409
 -0.405  -0.404  -0.402  -0.399  -0.399  -0.398  -0.398  -0.397
 -0.397  -0.394  -0.394  -0.394  -0.389  -0.388  -0.386  -0.382
 -0.381  -0.374  -0.365  -0.363  -0.361  -0.356  -0.352  -0.348
 -0.324  -0.320  -0.320  -0.318  -0.299  -0.298  -0.288  -0.288
 -0.286  -0.285  -0.283  -0.282  -0.282  -0.267  -0.262  -0.260
 -0.244  -0.243  -0.226  -0.225

          Ground-State Mulliken Net Atomic Charges

     Atom                 Charge (a.u.)    Spin (a.u.)
  --------------------------------------------------------
      1 C                     0.107655      -0.000000
      2 C                     0.331443       0.000000
      3 N                    -0.737829       0.000000
      4 C                     0.327116      -0.000000
      5 C                     0.107484       0.000000
      6 C                    -0.402350       0.000000
      7 C                     0.126087       0.000000
      8 C                    -0.273399       0.000000
      9 C                    -0.268387      -0.000000
     10 C                    -0.401933      -0.000000
     11 C                     0.125939      -0.000000
     12 C                    -0.273345      -0.000000
     13 C                    -0.271261       0.000000
     14 C                     0.306034       0.000000
     15 C                    -0.345492      -0.000000
     16 C                     0.055786       0.000000
     17 C                    -0.216569      -0.000000
     18 C                     0.047825      -0.000000
     19 C                    -0.341557      -0.000000
     20 B                     0.704134       0.000000
     21 C                    -0.151341       0.000000
     22 C                    -0.379499      -0.000000
     23 C                     0.086177       0.000000
     24 C                     0.108706      -0.000000
     25 C                    -0.394306       0.000000
     26 C                    -0.156806      -0.000000
     27 C                     0.196842      -0.000000
     28 C                    -0.060616       0.000000
     29 C                     0.196344      -0.000000
     30 C                     0.249629      -0.000000
     31 C                    -0.334840      -0.000000
     32 C                    -0.203776       0.000000
     33 C                    -0.383955      -0.000000
     34 C                    -0.375066       0.000000
     35 C                    -0.206931       0.000000
     36 C                    -0.330584      -0.000000
     37 B                     0.707232       0.000000
     38 C                    -0.152894      -0.000000
     39 C                    -0.391327      -0.000000
     40 C                     0.112210      -0.000000
     41 C                     0.084503      -0.000000
     42 C                    -0.382796       0.000000
     43 C                    -0.154646      -0.000000
     44 C                     0.195346       0.000000
     45 C                    -0.059276      -0.000000
     46 C                     0.196401      -0.000000
     47 C                     0.251252       0.000000
     48 C                    -0.331056      -0.000000
     49 C                    -0.206461       0.000000
     50 C                    -0.375158       0.000000
     51 C                    -0.384871      -0.000000
     52 C                    -0.203756       0.000000
     53 C                    -0.335702      -0.000000
     54 C                    -0.758076       0.000000
     55 C                    -0.762680       0.000000
     56 C                    -0.209968       0.000000
     57 C                     0.046349      -0.000000
     58 C                    -0.352854      -0.000000
     59 C                     0.313329      -0.000000
     60 C                    -0.345290       0.000000
     61 C                     0.055251      -0.000000
     62 N                    -0.739892      -0.000000
     63 C                     0.326284       0.000000
     64 C                     0.113814      -0.000000
     65 C                     0.110569      -0.000000
     66 C                     0.328434       0.000000
     67 C                    -0.405900      -0.000000
     68 C                     0.126042       0.000000
     69 C                    -0.274168       0.000000
     70 C                    -0.271284      -0.000000
     71 C                    -0.405553       0.000000
     72 C                     0.125944      -0.000000
     73 C                    -0.274323       0.000000
     74 C                    -0.271485       0.000000
     75 C                    -0.763998      -0.000000
     76 C                    -0.759444       0.000000
     77 H                     0.231216       0.000000
     78 H                     0.206666      -0.000000
     79 H                     0.231084      -0.000000
     80 H                     0.206873       0.000000
     81 C                    -0.702958      -0.000000
     82 H                     0.196680      -0.000000
     83 C                    -0.703043      -0.000000
     84 H                     0.196564      -0.000000
     85 H                     0.234972       0.000000
     86 H                     0.235209       0.000000
     87 H                     0.242309      -0.000000
     88 H                     0.247678       0.000000
     89 H                     0.248959       0.000000
     90 H                     0.240850      -0.000000
     91 H                     0.247663      -0.000000
     92 H                     0.244704       0.000000
     93 H                     0.232176       0.000000
     94 H                     0.229695       0.000000
     95 H                     0.219677       0.000000
     96 H                     0.221409       0.000000
     97 H                     0.228829      -0.000000
     98 H                     0.222183       0.000000
     99 H                     0.228826       0.000000
    100 H                     0.222514      -0.000000
    101 H                     0.232706      -0.000000
    102 H                     0.229962       0.000000
    103 H                     0.220559      -0.000000
    104 H                     0.220364       0.000000
    105 H                     0.222515      -0.000000
    106 H                     0.228688       0.000000
    107 H                     0.229284       0.000000
    108 H                     0.222233       0.000000
    109 H                     0.231544      -0.000000
    110 H                     0.235877       0.000000
    111 H                     0.227692       0.000000
    112 H                     0.206346       0.000000
    113 H                     0.227935      -0.000000
    114 H                     0.206098      -0.000000
    115 C                    -0.703155      -0.000000
    116 H                     0.196444      -0.000000
    117 C                    -0.703330      -0.000000
    118 H                     0.196545       0.000000
    119 H                     0.242574      -0.000000
    120 H                     0.248254      -0.000000
    121 H                     0.247713       0.000000
    122 H                     0.240561       0.000000
    123 H                     0.244769       0.000000
    124 H                     0.246965       0.000000
    125 H                     0.221492       0.000000
    126 H                     0.227035      -0.000000
    127 H                     0.227313       0.000000
    128 H                     0.221689      -0.000000
    129 H                     0.226825       0.000000
    130 H                     0.227340       0.000000
    131 H                     0.221549       0.000000
    132 H                     0.226647      -0.000000
    133 H                     0.227266       0.000000
    134 H                     0.221447       0.000000
    135 H                     0.226966       0.000000
    136 H                     0.227093      -0.000000
  --------------------------------------------------------
  Sum of atomic charges =     0.000000

                    Cartesian Multipole Moments
 -----------------------------------------------------------------
    Charge (ESU x 10^10)
                 0.0000
    Dipole Moment (Debye)
         X      -0.1670      Y       0.0119      Z       0.0202
       Tot       0.1686
    Quadrupole Moments (Debye-Ang)
        XX    -431.7437     XY     -25.4729     YY    -438.9187
        XZ     -21.8335     YZ      22.6100     ZZ    -445.8740

 Total job time:  3612.98s(wall), 26775.37s(cpu)
        *  Thank you very much for using Q-Chem.  Have a nice day.  *
 Q-Chem 5.1, Q-Chem, Inc., Pleasanton, CA (2018)
 Q-Chem 5.1.1 for Intel X86 EM64T Linux

User input:
--------------------------------------------------------------

$rem
threads 8
jobtype opt
method PBEh-3c
basis def2-mSVP
scf_guess	read
mem_static      1024
mem_total       8000
sym_ignore      true
unrestricted true
mom_start       1
scf_algorithm	diis
scf_max_cycles	250
solvent_method	pcm
geom_opt_tol_energy 25
geom_opt_tol_gradient 75
$end

$solvent
dielectric      1.0001
$end

$pcm
theory iefpcm
heavypoints 194
hpoints	    194
$end

$occupied
1 2 3 4 5 6 7 8 9 10 11 12 13 14 15 16 17 18 19 20 21 22 23 24 25 26 27 28 29 30 31 32 33 34 35 36 37 38 39 40 41 42 43 44 45 46 47 48 49 50 51 52 53 54 55 56 57 58 59 60 61 62 63 64 65 66 67 68 69 70 71 72 73 74 75 76 77 78 79 80 81 82 83 84 85 86 87 88 89 90 91 92 93 94 95 96 97 98 99 100 101 102 103 104 105 106 107 108 109 110 111 112 113 114 115 116 117 118 119 120 121 122 123 124 125 126 127 128 129 130 131 132 133 134 135 136 137 138 139 140 141 142 143 144 145 146 147 148 149 150 151 152 153 154 155 156 157 158 159 160 161 162 163 164 165 166 167 168 169 170 171 172 173 174 175 176 177 178 179 180 181 182 183 184 185 186 187 188 189 190 191 192 193 194 195 196 197 198 199 200 201 202 203 204 205 206 207 208 209 210 211 212 213 214 215 216 217 218 219 220 221 222 223 224 225 226 227 228 229 230 231 232 233 234 235 236 237 238 239 240 241 242 243 244 245 246 247 248 249 250 251 252 253 254 255 256 257 258 259 260 261 262 263 264 265 266 267  269
1 2 3 4 5 6 7 8 9 10 11 12 13 14 15 16 17 18 19 20 21 22 23 24 25 26 27 28 29 30 31 32 33 34 35 36 37 38 39 40 41 42 43 44 45 46 47 48 49 50 51 52 53 54 55 56 57 58 59 60 61 62 63 64 65 66 67 68 69 70 71 72 73 74 75 76 77 78 79 80 81 82 83 84 85 86 87 88 89 90 91 92 93 94 95 96 97 98 99 100 101 102 103 104 105 106 107 108 109 110 111 112 113 114 115 116 117 118 119 120 121 122 123 124 125 126 127 128 129 130 131 132 133 134 135 136 137 138 139 140 141 142 143 144 145 146 147 148 149 150 151 152 153 154 155 156 157 158 159 160 161 162 163 164 165 166 167 168 169 170 171 172 173 174 175 176 177 178 179 180 181 182 183 184 185 186 187 188 189 190 191 192 193 194 195 196 197 198 199 200 201 202 203 204 205 206 207 208 209 210 211 212 213 214 215 216 217 218 219 220 221 222 223 224 225 226 227 228 229 230 231 232 233 234 235 236 237 238 239 240 241 242 243 244 245 246 247 248 249 250 251 252 253 254 255 256 257 258 259 260 261 262 263 264 265 266 267 268
$end

$molecule
read
$end

--------------------------------------------------------------

             Standard Nuclear Orientation (Angstroms)
    I     Atom           X                Y                Z
 ----------------------------------------------------------------
    1      C     -12.5747250000    -3.1072410000   -10.4887290000
    2      C     -11.8031050000    -2.2718880000    -9.6591590000
    3      N     -10.6065860000    -2.9002540000    -9.3790780000
    4      C     -10.5949430000    -4.1288320000   -10.0066010000
    5      C     -11.7985780000    -4.2960810000   -10.7137160000
    6      C     -12.0232590000    -5.4647410000   -11.4352980000
    7      C     -11.0500080000    -6.4465640000   -11.4400630000
    8      C      -9.8569430000    -6.2650210000   -10.7335200000
    9      C      -9.6098030000    -5.1108220000   -10.0109660000
   10      C     -13.8427500000    -2.7031760000   -10.8934320000
   11      C     -14.3219350000    -1.4791440000   -10.4649940000
   12      C     -13.5455210000    -0.6632430000    -9.6360830000
   13      C     -12.2814850000    -1.0439120000    -9.2192210000
   14      C      -9.6144360000    -2.4486940000    -8.4811290000
   15      C      -8.8661230000    -1.3175030000    -8.7658420000
   16      C      -7.8608580000    -0.9059450000    -7.8971510000
   17      C      -7.5929500000    -1.6439550000    -6.7382430000
   18      C      -8.3635850000    -2.7782940000    -6.4497820000
   19      C      -9.3740340000    -3.1661200000    -7.3190090000
   20      B      -6.4006120000    -1.2607660000    -5.7862810000
   21      C      -5.0060900000    -1.8949340000    -6.0329120000
   22      C      -4.8201270000    -2.7393540000    -7.1265100000
   23      C      -3.6020820000    -3.3604030000    -7.3181730000
   24      C      -2.5342350000    -3.1453540000    -6.4196380000
   25      C      -2.7089110000    -2.3001070000    -5.3351220000
   26      C      -3.9414820000    -1.6698030000    -5.1275080000
   27      C      -1.4058780000    -3.9720940000    -6.8626490000
   28      C      -1.8495650000    -4.6574960000    -8.0109770000
   29      C      -3.1755070000    -4.3195130000    -8.3319040000
   30      C      -1.0925260000    -5.5793370000    -8.7262680000
   31      C       0.2174940000    -5.8110440000    -8.2438200000
   32      C       0.6658510000    -5.1452940000    -7.1264700000
   33      C      -0.1345870000    -4.2183760000    -6.4148830000
   34      C      -3.7725820000    -4.9180410000    -9.4112600000
   35      C      -3.0239240000    -5.8557900000   -10.1601370000
   36      C      -1.7270580000    -6.1847530000    -9.8388820000
   37      B      -4.1726570000    -0.7638570000    -3.8829520000
   38      C      -5.5563570000    -0.0828610000    -3.6595920000
   39      C      -5.7772610000     0.7300290000    -2.5418060000
   40      C      -7.0225420000     1.3021970000    -2.3343020000
   41      C      -8.0660880000     1.0639670000    -3.2556560000
   42      C      -7.8617430000     0.2599840000    -4.3602150000
   43      C      -6.6121380000    -0.3201150000    -4.5737640000
   44      C      -9.2643700000     1.7547720000    -2.7924970000
   45      C      -8.9072140000     2.3917190000    -1.5922340000
   46      C      -7.5588050000     2.1514720000    -1.2656440000
   47      C      -9.7890390000     3.1419830000    -0.8222110000
   48      C     -11.1129830000     3.2533550000    -1.3140960000
   49      C     -11.4691160000     2.6335260000    -2.4897710000
   50      C     -10.5514180000     1.8713370000    -3.2495770000
   51      C      -7.0686960000     2.6956850000    -0.1080100000
   52      C      -7.9393130000     3.4690930000     0.6979180000
   53      C      -9.2555680000     3.6940260000     0.3664340000
   54      C      -7.0391060000     0.3093250000    -8.2212780000
   55      C      -8.0946120000    -3.5847930000    -5.2105450000
   56      C      -3.0382610000    -0.5708200000    -2.8106760000
   57      C      -2.9320150000    -1.4873360000    -1.7573830000
   58      C      -1.9562850000    -1.3107670000    -0.7838430000
   59      C      -1.0983140000    -0.2215730000    -0.8386690000
   60      C      -1.2005190000     0.6890750000    -1.8808540000
   61      C      -2.1580710000     0.5147620000    -2.8741540000
   62      N      -0.1297790000    -0.0364820000     0.1737890000
   63      C      -0.4003010000     0.1736220000     1.5109990000
   64      C       0.8078380000     0.3508900000     2.2042340000
   65      C       1.8610510000     0.2443400000     1.2282070000
   66      C       1.2379180000     0.0069560000    -0.0085620000
   67      C       0.7804400000     0.5936690000     3.5740650000
   68      C      -0.4400820000     0.6598830000     4.2209830000
   69      C      -1.6330030000     0.4918960000     3.5109530000
   70      C      -1.6332640000     0.2488510000     2.1495750000
   71      C       3.2484480000     0.3278250000     1.2895920000
   72      C       3.9828670000     0.1717950000     0.1281190000
   73      C       3.3446550000    -0.0733710000    -1.0919340000
   74      C       1.9672700000    -0.1619760000    -1.1798640000
   75      C      -3.8657190000    -2.6637650000    -1.6899180000
   76      C      -2.2657250000     1.4951890000    -4.0079960000
   77      H      -2.5605740000     0.1258360000     1.6053980000
   78      H      -2.5776660000     0.5555490000     4.0354500000
   79      H       1.4796300000    -0.3555940000    -2.1264480000
   80      H       3.9392220000    -0.1979260000    -1.9876970000
   81      C       5.4295450000     0.2595460000     0.1719860000
   82      H       3.7470430000     0.5124770000     2.2328810000
   83      C      -0.4881990000     0.9117160000     5.6481360000
   84      H       1.7015620000     0.7333390000     4.1256710000
   85      H      -0.5362910000     1.5448340000    -1.9119900000
   86      H      -1.8599360000    -2.0268640000     0.0236570000
   87      H      -3.6922150000    -3.2696810000    -0.8012680000
   88      H      -4.9101340000    -2.3440890000    -1.6696240000
   89      H      -3.7476690000    -3.3145930000    -2.5588100000
   90      H      -1.5262030000     2.2911510000    -3.9290390000
   91      H      -3.2515510000     1.9645780000    -4.0368540000
   92      H      -2.1180190000     1.0035720000    -4.9722460000
   93      H      -4.9732090000     0.9013560000    -1.8344420000
   94      H      -8.6732680000     0.0664980000    -5.0537400000
   95      H     -10.8796050000     1.3957660000    -4.1657060000
   96      H      -6.0425980000     2.5478140000     0.2043530000
   97      H     -12.4862210000     2.7271700000    -2.8476150000
   98      H     -11.8493710000     3.8247360000    -0.7622790000
   99      H      -7.5491230000     3.8969430000     1.6119940000
  100      H      -9.8828580000     4.2902700000     1.0176960000
  101      H      -5.6384960000    -2.9240780000    -7.8136270000
  102      H      -1.8979630000    -2.1364540000    -4.6336720000
  103      H       0.2678490000    -3.7309460000    -5.5357020000
  104      H      -4.7935730000    -4.6967670000    -9.6980350000
  105      H       0.8661300000    -6.5155490000    -8.7498950000
  106      H       1.6689710000    -5.3382030000    -6.7696700000
  107      H      -3.4926150000    -6.3313320000   -11.0119720000
  108      H      -1.1927060000    -6.9125910000   -10.4372700000
  109      H      -9.0535150000    -0.7688010000    -9.6816600000
  110      H      -9.9756890000    -4.0403320000    -7.0975630000
  111      H     -11.6942130000    -0.4071240000    -8.5709790000
  112      H     -13.9429910000     0.2884850000    -9.3080700000
  113      H      -8.6823090000    -4.9856120000    -9.4681180000
  114      H      -9.1073470000    -7.0456820000   -10.7501480000
  115      C     -11.2636340000    -7.6746480000   -12.1807890000
  116      H     -12.9473150000    -5.6042320000   -11.9828740000
  117      C     -15.6416580000    -1.0362680000   -10.8708180000
  118      H     -14.4465840000    -3.3402350000   -11.5281580000
  119      H      -8.8005450000    -4.4080250000    -5.1075240000
  120      H      -8.1683030000    -2.9720400000    -4.3098300000
  121      H      -7.0898450000    -4.0134130000    -5.2257090000
  122      H      -7.3517600000     0.7695930000    -9.1578850000
  123      H      -7.1201560000     1.0664780000    -7.4386600000
  124      H      -5.9799670000     0.0592680000    -8.3161560000
  125      H     -16.0977060000    -1.7916240000   -11.5090800000
  126      H     -16.2611240000    -0.8848330000    -9.9880670000
  127      H     -15.5573000000    -0.0997320000   -11.4200950000
  128      H     -12.2385260000    -7.6416320000   -12.6649550000
  129      H     -10.4866740000    -7.7828010000   -12.9361410000
  130      H     -11.2261430000    -8.5218450000   -11.4975810000
  131      H       0.5252960000     1.0156060000     6.0327850000
  132      H      -1.0437150000     1.8292750000     5.8363070000
  133      H      -0.9823170000     0.0794010000     6.1471560000
  134      H       5.7506320000     0.4531470000     1.1944060000
  135      H       5.8607660000    -0.6793030000    -0.1722990000
  136      H       5.7637400000     1.0706970000    -0.4732020000
 ----------------------------------------------------------------
