 Q-Chem 5.1, Q-Chem, Inc., Pleasanton, CA (2018)
 Q-Chem 5.1.1 for Intel X86 EM64T Linux

User input:
--------------------------------------------------------------
$rem
threads 8
jobtype opt
method PBEh-3c
basis def2-mSVP
mem_static      1024
mem_total       8000
sym_ignore      true
unrestricted true
scf_algorithm   diis
scf_max_cycles  250
solvent_method  pcm
geom_opt_tol_energy 25
geom_opt_tol_gradient 75
$end

$pcm
theory  iefpcm
$end

$solvent
dielectric      1.0001
$end

$molecule
read uincoords.mol
$end

--------------------------------------------------------------

   29   -3082.3584034359      8.71e-09  Convergence criterion met
 Total energy in the final basis set =    -3082.3584034359
   19   -3082.3784910430      8.98e-09  Convergence criterion met
 Total energy in the final basis set =    -3082.3784910430
   19   -3082.3796276134      8.41e-09  Convergence criterion met
 Total energy in the final basis set =    -3082.3796276134
   19   -3082.3792886680      6.31e-09  Convergence criterion met
 Total energy in the final basis set =    -3082.3792886680
   18   -3082.3783888651      8.36e-09  Convergence criterion met
 Total energy in the final basis set =    -3082.3783888651
   16   -3082.3778385902      7.62e-09  Convergence criterion met
 Total energy in the final basis set =    -3082.3778385902
   18   -3082.3783788819      6.11e-09  Convergence criterion met
 Total energy in the final basis set =    -3082.3783788819
   15   -3082.3781621652      5.64e-09  Convergence criterion met
    8   -3082.3780507600      9.16e-09  Convergence criterion met
 Total energy in the final basis set =    -3082.3780507600
    8   -3082.3780444718      6.86e-09  Convergence criterion met
 Total energy in the final basis set =    -3082.3780444718
    8   -3082.3780561452      6.25e-09  Convergence criterion met
 Total energy in the final basis set =    -3082.3780561452
   11   -3082.3780603825      5.88e-09  Convergence criterion met
 Total energy in the final basis set =    -3082.3780603825
   10   -3082.3780687365      9.48e-09  Convergence criterion met
 Total energy in the final basis set =    -3082.3780687365
    7   -3082.3780707645      8.33e-09  Convergence criterion met
 Total energy in the final basis set =    -3082.3780707645

             Standard Nuclear Orientation (Angstroms)
    I     Atom           X                Y                Z
 ----------------------------------------------------------------
    1      C     -12.2486037122    -1.8751932255   -10.8481022255
    2      C     -11.3586567175    -1.4472997031    -9.8518504439
    3      N     -10.4098628116    -2.4316003787    -9.6481966484
    4      C     -10.6862015500    -3.4893440124   -10.4878133210
    5      C     -11.8189474887    -3.1844880064   -11.2551383056
    6      C     -12.3057969121    -4.1126739454   -12.1727203063
    7      C     -11.6717089111    -5.3327157042   -12.3293712620
    8      C     -10.5322391137    -5.6045322583   -11.5557239994
    9      C     -10.0255897583    -4.7045548490   -10.6384991239
   10      C     -13.3292543031    -1.0775371539   -11.2082219164
   11      C     -13.5298777833     0.1372346369   -10.5780579475
   12      C     -12.6282030953     0.5362441283    -9.5786439727
   13      C     -11.5450943088    -0.2347915008    -9.2009327361
   14      C      -9.4117941087    -2.4112490630    -8.6562740431
   15      C      -8.4465391760    -1.4179027728    -8.6740929615
   16      C      -7.4925187876    -1.3477757217    -7.6680892086
   17      C      -7.4898724012    -2.2960895280    -6.6357899212
   18      C      -8.4437273788    -3.3215616694    -6.6492305935
   19      C      -9.4041750578    -3.3682302140    -7.6528096849
   20      B      -6.4639572504    -2.1209281294    -5.4531080365
   21      C      -5.0610428421    -2.7188324846    -5.5012511453
   22      C      -4.7141163439    -3.6012976574    -6.5352460703
   23      C      -3.4688596650    -4.1712255560    -6.5658114325
   24      C      -2.4804795237    -3.8491664444    -5.5452420622
   25      C      -2.7945662933    -2.9668908401    -4.5445035507
   26      C      -4.0783187311    -2.3890816800    -4.4789243630
   27      C      -1.2875257478    -4.6212295981    -5.8387977076
   28      C      -1.5750847216    -5.3746254228    -6.9981554028
   29      C      -2.8825978894    -5.1314359739    -7.4708139310
   30      C      -0.6934957999    -6.2720119491    -7.5944176195
   31      C       0.5692454006    -6.4037668756    -6.9705851088
   32      C       0.8620904808    -5.6729392573    -5.8397037594
   33      C      -0.0538991561    -4.7746604927    -5.2528921490
   34      C      -3.3251566862    -5.8058509336    -8.5858989770
   35      C      -2.4472187581    -6.7139157963    -9.2100720665
   36      C      -1.1721827929    -6.9496562603    -8.7418742634
   37      B      -4.4364921254    -1.4244815307    -3.3428886033
   38      C      -5.8804202950    -0.9371170028    -3.2151484659
   39      C      -6.2740066707    -0.1456662820    -2.1167757614
   40      C      -7.5741553921     0.2729531807    -1.9941808502
   41      C      -8.5478577545    -0.0883037047    -3.0159651461
   42      C      -8.1807751487    -0.8348292213    -4.1029860278
   43      C      -6.8591852628    -1.2854737248    -4.2357345423
   44      C      -9.8235335273     0.4723624121    -2.6414570338
   45      C      -9.6152189800     1.1531230176    -1.4239371771
   46      C      -8.2724980474     1.0616061237    -0.9945253174
   47      C     -10.6210288891     1.8266756594    -0.7361275910
   48      C     -11.9078710759     1.8018843232    -1.3258152932
   49      C     -12.1170965078     1.1375197203    -2.5154210252
   50      C     -11.0839872051     0.4622554475    -3.1945593112
   51      C      -7.9252330038     1.6814628000     0.1820581369
   52      C      -8.9240130346     2.3738934788     0.8989963211
   53      C     -10.2309493497     2.4533915913     0.4698331266
   54      C      -6.4652947830    -0.2512588264    -7.6972818124
   55      C      -8.4542850958    -4.3562620064    -5.5588633911
   56      C      -3.3060557202    -0.9299124565    -2.3652774149
   57      C      -2.9878461546    -1.6287057040    -1.1953002644
   58      C      -1.9081334992    -1.2251929355    -0.4159102768
   59      C      -1.1580817249    -0.1188151715    -0.7831437415
   60      C      -1.4961742514     0.6031890877    -1.9186870633
   61      C      -2.5563111345     0.1996775193    -2.7176646360
   62      N      -0.0323901657     0.2725013770    -0.0297466458
   63      C      -0.0465702620     0.8168282362     1.2369591795
   64      C       1.2425972750     1.2663045191     1.5623795526
   65      C       2.0748251085     0.9882404708     0.4187166573
   66      C       1.2438420448     0.3858261548    -0.5373441261
   67      C       1.4554645626     1.8884320449     2.7888244310
   68      C       0.4008027251     2.0663748281     3.6683339307
   69      C      -0.8764892825     1.6114741376     3.3048323765
   70      C      -1.1218395745     0.9873637525     2.0987164204
   71      C       3.4128454518     1.2178151323     0.1079441498
   72      C       3.9102908581     0.8550861997    -1.1323312801
   73      C       3.0512905809     0.2458683406    -2.0606954865
   74      C       1.7221452317     0.0004575573    -1.7843753572
   75      C      -3.7930181940    -2.8377565977    -0.8077203756
   76      C      -2.8950797271     0.9699591571    -3.9636224574
   77      H      -2.1167414547     0.6560545858     1.8303590958
   78      H      -1.7005901631     1.7619449407     3.9925944029
   79      H       1.0774236773    -0.4655847481    -2.5183515887
   80      H       3.4441136841    -0.0376452325    -3.0304363699
   81      C       5.3434338955     1.1077969013    -1.5032659081
   82      H       4.0651412226     1.6900940452     0.8331125427
   83      C       0.5971359823     2.7488015078     4.9915652342
   84      H       2.4441169910     2.2463800452     3.0511827786
   85      H      -0.9171724186     1.4799632707    -2.1842557086
   86      H      -1.6310095167    -1.7867997032     0.4682527206
   87      H      -3.4338107908    -3.2870109647     0.1178306647
   88      H      -4.8463098469    -2.5865505064    -0.6665235056
   89      H      -3.7568705302    -3.6065445869    -1.5826861413
   90      H      -2.2278379607     1.8194159676    -4.1054876744
   91      H      -3.9172282585     1.3526179661    -3.9313452278
   92      H      -2.8224762214     0.3403397058    -4.8530613208
   93      H      -5.5341690333     0.1221655053    -1.3711971005
   94      H      -8.9096274781    -1.0824156524    -4.8668939282
   95      H     -11.2956884261    -0.0474671825    -4.1262117239
   96      H      -6.9139024367     1.6501874203     0.5658565946
   97      H     -13.1101703588     1.1320152178    -2.9455637552
   98      H     -12.7343951043     2.3061187731    -0.8406114672
   99      H      -8.6488255073     2.8617321919     1.8246225267
  100      H     -10.9596860451     2.9973955444     1.0577986025
  101      H      -5.4465687142    -3.8339546051    -7.3010007998
  102      H      -2.0615855517    -2.7141967259    -3.7872426862
  103      H       0.2237696208    -4.2322751639    -4.3585101717
  104      H      -4.3206569696    -5.6581161863    -8.9852458716
  105      H       1.3064257300    -7.0839513018    -7.3786824373
  106      H       1.8327367120    -5.7937521565    -5.3773265109
  107      H      -2.7902469006    -7.2472632607   -10.0869790582
  108      H      -0.5357708346    -7.6608916124    -9.2536166900
  109      H      -8.4461216170    -0.6949568492    -9.4816113803
  110      H     -10.1648773009    -4.1410020572    -7.6453337769
  111      H     -10.8754402064     0.0954471922    -8.4181519932
  112      H     -12.7897556372     1.4840852185    -9.0785271011
  113      H      -9.1453501492    -4.9465692799   -10.0578046789
  114      H     -10.0316185430    -6.5581460107   -11.6791527544
  115      C     -12.1831209166    -6.3598012501   -13.2993841189
  116      H     -13.1875524554    -3.8842620834   -12.7611589232
  117      C     -14.6919264887     1.0169775735   -10.9406253940
  118      H     -14.0208018484    -1.4149442157   -11.9722791967
  119      H      -9.2229645051    -5.1100630782    -5.7271534873
  120      H      -8.6424262528    -3.9059043379    -4.5818705497
  121      H      -7.4942257080    -4.8710242776    -5.4877589003
  122      H      -6.5972456717     0.3973404029    -8.5629135974
  123      H      -6.5215304258     0.3743949202    -6.8043963098
  124      H      -5.4521576852    -0.6552283695    -7.7384519034
  125      H     -15.3101180861     0.5603469257   -11.7130229034
  126      H     -15.3348131497     1.2091553208   -10.0797437369
  127      H     -14.3606925959     1.9856944690   -11.3187372563
  128      H     -13.0607135930    -6.0000775452   -13.8356057601
  129      H     -11.4291756143    -6.6205376255   -14.0442028768
  130      H     -12.4673744652    -7.2837966488   -12.7923712828
  131      H       1.6354411121     3.0436883269     5.1392634381
  132      H      -0.0125695648     3.6507658277     5.0700194137
  133      H       0.3202505058     2.0994592684     5.8239246855
  134      H       5.8924136756     1.5760495104    -0.6870591958
  135      H       5.8617581647     0.1814181514    -1.7570134663
  136      H       5.4210317253     1.7675817093    -2.3694390515
 ----------------------------------------------------------------

   11   -3082.3780709262      4.32e-09  Convergence criterion met
 Total energy in the final basis set =    -3082.3780709262
 Final energy is   -3082.37807092622
 **  OPTIMIZATION CONVERGED  **

                    Orbital Energies (a.u.)
 --------------------------------------------------------------

 Alpha MOs
 -- Occupied --
-14.682 -14.680 -10.486 -10.485 -10.483 -10.483 -10.481 -10.481
-10.477 -10.476 -10.475 -10.475 -10.474 -10.473 -10.473 -10.473
-10.472 -10.472 -10.472 -10.472 -10.471 -10.471 -10.471 -10.471
-10.471 -10.470 -10.467 -10.467 -10.467 -10.467 -10.466 -10.465
-10.461 -10.461 -10.460 -10.459 -10.456 -10.456 -10.455 -10.454
-10.454 -10.454 -10.451 -10.451 -10.443 -10.443 -10.443 -10.442
-10.442 -10.442 -10.441 -10.441 -10.441 -10.441 -10.440 -10.440
-10.439 -10.439 -10.439 -10.439 -10.438 -10.438 -10.438 -10.438
-10.438 -10.438 -10.437 -10.437 -10.430 -10.430 -10.429 -10.429
-10.427 -10.427 -10.426 -10.426 -10.424 -10.424  -6.927  -6.925
 -1.102  -1.101  -1.029  -1.029  -0.974  -0.971  -0.970  -0.970
 -0.948  -0.947  -0.943  -0.943  -0.943  -0.942  -0.919  -0.910
 -0.889  -0.888  -0.876  -0.875  -0.870  -0.869  -0.860  -0.860
 -0.857  -0.857  -0.848  -0.848  -0.835  -0.832  -0.828  -0.822
 -0.822  -0.815  -0.808  -0.807  -0.776  -0.775  -0.772  -0.772
 -0.763  -0.762  -0.760  -0.757  -0.744  -0.741  -0.740  -0.730
 -0.712  -0.711  -0.699  -0.698  -0.689  -0.688  -0.679  -0.679
 -0.659  -0.657  -0.656  -0.654  -0.652  -0.652  -0.640  -0.639
 -0.637  -0.636  -0.607  -0.603  -0.601  -0.599  -0.592  -0.589
 -0.588  -0.586  -0.585  -0.582  -0.581  -0.557  -0.553  -0.552
 -0.552  -0.551  -0.540  -0.538  -0.537  -0.534  -0.531  -0.525
 -0.519  -0.519  -0.512  -0.509  -0.506  -0.506  -0.503  -0.502
 -0.500  -0.499  -0.495  -0.494  -0.493  -0.492  -0.492  -0.491
 -0.490  -0.489  -0.489  -0.483  -0.481  -0.477  -0.477  -0.475
 -0.475  -0.474  -0.472  -0.470  -0.470  -0.469  -0.468  -0.467
 -0.466  -0.465  -0.464  -0.462  -0.462  -0.461  -0.452  -0.449
 -0.448  -0.443  -0.442  -0.438  -0.437  -0.434  -0.431  -0.428
 -0.428  -0.427  -0.427  -0.418  -0.413  -0.413  -0.409  -0.409
 -0.408  -0.407  -0.406  -0.405  -0.402  -0.401  -0.400  -0.398
 -0.395  -0.394  -0.394  -0.392  -0.388  -0.386  -0.385  -0.384
 -0.380  -0.379  -0.363  -0.363  -0.362  -0.360  -0.354  -0.342
 -0.339  -0.332  -0.319  -0.319  -0.310  -0.308  -0.299  -0.286
 -0.286  -0.282  -0.280  -0.279  -0.278  -0.278  -0.276  -0.267
 -0.243  -0.243  -0.226  -0.226  -0.180

 Beta MOs
 -- Occupied --
-14.682 -14.680 -10.486 -10.485 -10.480 -10.479 -10.478 -10.477
-10.477 -10.476 -10.475 -10.475 -10.475 -10.475 -10.474 -10.474
-10.473 -10.472 -10.471 -10.470 -10.470 -10.470 -10.469 -10.469
-10.469 -10.469 -10.468 -10.468 -10.468 -10.468 -10.463 -10.463
-10.463 -10.462 -10.462 -10.460 -10.456 -10.456 -10.455 -10.454
-10.450 -10.450 -10.448 -10.448 -10.443 -10.443 -10.443 -10.442
-10.442 -10.442 -10.441 -10.441 -10.441 -10.441 -10.440 -10.440
-10.439 -10.439 -10.439 -10.439 -10.438 -10.438 -10.438 -10.438
-10.438 -10.438 -10.437 -10.437 -10.430 -10.430 -10.429 -10.429
-10.427 -10.427 -10.426 -10.426 -10.425 -10.424  -6.925  -6.923
 -1.102  -1.101  -1.025  -1.025  -0.972  -0.971  -0.967  -0.965
 -0.948  -0.947  -0.943  -0.942  -0.942  -0.941  -0.914  -0.906
 -0.889  -0.888  -0.876  -0.875  -0.868  -0.867  -0.860  -0.860
 -0.855  -0.855  -0.848  -0.848  -0.832  -0.831  -0.822  -0.821
 -0.820  -0.808  -0.807  -0.804  -0.775  -0.775  -0.772  -0.771
 -0.762  -0.762  -0.759  -0.757  -0.742  -0.738  -0.737  -0.727
 -0.712  -0.710  -0.697  -0.695  -0.687  -0.687  -0.676  -0.675
 -0.658  -0.657  -0.654  -0.653  -0.652  -0.652  -0.640  -0.639
 -0.637  -0.635  -0.605  -0.601  -0.599  -0.596  -0.592  -0.589
 -0.588  -0.584  -0.583  -0.582  -0.581  -0.556  -0.552  -0.551
 -0.551  -0.550  -0.539  -0.537  -0.536  -0.533  -0.530  -0.524
 -0.518  -0.517  -0.511  -0.509  -0.506  -0.506  -0.502  -0.501
 -0.494  -0.494  -0.493  -0.492  -0.491  -0.491  -0.490  -0.489
 -0.489  -0.489  -0.488  -0.482  -0.481  -0.477  -0.477  -0.474
 -0.474  -0.474  -0.472  -0.470  -0.470  -0.468  -0.468  -0.467
 -0.466  -0.465  -0.463  -0.462  -0.462  -0.460  -0.451  -0.446
 -0.443  -0.442  -0.437  -0.434  -0.434  -0.430  -0.428  -0.427
 -0.427  -0.423  -0.421  -0.416  -0.413  -0.413  -0.409  -0.408
 -0.408  -0.404  -0.402  -0.402  -0.402  -0.400  -0.399  -0.396
 -0.395  -0.394  -0.392  -0.391  -0.386  -0.385  -0.384  -0.380
 -0.379  -0.365  -0.361  -0.360  -0.359  -0.352  -0.345  -0.340
 -0.331  -0.326  -0.319  -0.319  -0.302  -0.302  -0.286  -0.286
 -0.281  -0.279  -0.279  -0.278  -0.268  -0.262  -0.256  -0.243
 -0.243  -0.226  -0.226

          Ground-State Mulliken Net Atomic Charges

     Atom                 Charge (a.u.)    Spin (a.u.)
  --------------------------------------------------------
      1 C                     0.112229       0.000012
      2 C                     0.323937      -0.000021
      3 N                    -0.738432       0.000067
      4 C                     0.324842      -0.000019
      5 C                     0.112477       0.000010
      6 C                    -0.404827      -0.000004
      7 C                     0.122091       0.000023
      8 C                    -0.278603      -0.000013
      9 C                    -0.263916       0.000023
     10 C                    -0.402909      -0.000004
     11 C                     0.121667       0.000025
     12 C                    -0.280274      -0.000015
     13 C                    -0.264638       0.000026
     14 C                     0.317846      -0.000070
     15 C                    -0.358546      -0.000137
     16 C                     0.043731       0.001758
     17 C                    -0.203120      -0.018559
     18 C                     0.047821       0.002234
     19 C                    -0.343621      -0.000232
     20 B                     0.607230       0.212320
     21 C                    -0.125378       0.211608
     22 C                    -0.387845      -0.145089
     23 C                     0.092619       0.241269
     24 C                     0.115535       0.236178
     25 C                    -0.391799      -0.145563
     26 C                    -0.120788       0.231920
     27 C                     0.202758      -0.115156
     28 C                    -0.059783       0.141929
     29 C                     0.198449      -0.115808
     30 C                     0.251607      -0.093746
     31 C                    -0.336263       0.142385
     32 C                    -0.202766      -0.097453
     33 C                    -0.381139       0.135327
     34 C                    -0.371595       0.140851
     35 C                    -0.204782      -0.099442
     36 C                    -0.331798       0.150160
     37 B                     0.610169       0.202440
     38 C                    -0.125270       0.229844
     39 C                    -0.396975      -0.144672
     40 C                     0.116584       0.235165
     41 C                     0.090732       0.239723
     42 C                    -0.381957      -0.144047
     43 C                    -0.120172       0.211614
     44 C                     0.199113      -0.115309
     45 C                    -0.059533       0.141261
     46 C                     0.202097      -0.114476
     47 C                     0.252199      -0.093110
     48 C                    -0.331677       0.149309
     49 C                    -0.205573      -0.098877
     50 C                    -0.372582       0.140174
     51 C                    -0.381666       0.134098
     52 C                    -0.202113      -0.096765
     53 C                    -0.336519       0.141104
     54 C                    -0.755581       0.001310
     55 C                    -0.745737       0.000648
     56 C                    -0.199181      -0.017581
     57 C                     0.047913       0.001941
     58 C                    -0.348263      -0.000143
     59 C                     0.303831      -0.000186
     60 C                    -0.343297      -0.000061
     61 C                     0.044655       0.001494
     62 N                    -0.731210       0.000064
     63 C                     0.322204      -0.000019
     64 C                     0.122508       0.000005
     65 C                     0.118789       0.000015
     66 C                     0.318002      -0.000022
     67 C                    -0.409314       0.000000
     68 C                     0.121946       0.000016
     69 C                    -0.279985      -0.000009
     70 C                    -0.264521       0.000018
     71 C                    -0.409421      -0.000005
     72 C                     0.121646       0.000028
     73 C                    -0.280161      -0.000016
     74 C                    -0.262448       0.000026
     75 C                    -0.748155       0.000934
     76 C                    -0.756209       0.001600
     77 H                     0.229529      -0.000001
     78 H                     0.205781       0.000000
     79 H                     0.232315      -0.000000
     80 H                     0.206699       0.000001
     81 C                    -0.708546      -0.000002
     82 H                     0.196155       0.000000
     83 C                    -0.708561      -0.000001
     84 H                     0.196313      -0.000000
     85 H                     0.235215       0.000226
     86 H                     0.228750       0.000293
     87 H                     0.235235       0.001065
     88 H                     0.241277      -0.000506
     89 H                     0.243951      -0.000617
     90 H                     0.238719       0.001242
     91 H                     0.244165      -0.000671
     92 H                     0.245356      -0.000830
     93 H                     0.233024       0.005711
     94 H                     0.238170       0.005670
     95 H                     0.226382      -0.008330
     96 H                     0.222719      -0.007994
     97 H                     0.232749       0.004822
     98 H                     0.224351      -0.008761
     99 H                     0.230917       0.004765
    100 H                     0.224439      -0.008264
    101 H                     0.232809       0.005730
    102 H                     0.236717       0.005754
    103 H                     0.224813      -0.008050
    104 H                     0.222747      -0.008397
    105 H                     0.224464      -0.008343
    106 H                     0.232010       0.004793
    107 H                     0.231607       0.004854
    108 H                     0.224473      -0.008808
    109 H                     0.232627       0.000238
    110 H                     0.233999       0.000305
    111 H                     0.231775      -0.000001
    112 H                     0.206983       0.000001
    113 H                     0.231079      -0.000001
    114 H                     0.206250       0.000001
    115 C                    -0.708650      -0.000002
    116 H                     0.195682       0.000000
    117 C                    -0.708640      -0.000002
    118 H                     0.196324       0.000000
    119 H                     0.235244       0.001007
    120 H                     0.242980      -0.000467
    121 H                     0.240707      -0.000560
    122 H                     0.237939       0.001244
    123 H                     0.245204      -0.000810
    124 H                     0.244529      -0.000640
    125 H                     0.225096       0.000000
    126 H                     0.227084       0.000001
    127 H                     0.229109       0.000001
    128 H                     0.225145       0.000000
    129 H                     0.228167       0.000001
    130 H                     0.228257       0.000001
    131 H                     0.224966       0.000000
    132 H                     0.227812       0.000001
    133 H                     0.227843       0.000001
    134 H                     0.225073       0.000000
    135 H                     0.227401       0.000001
    136 H                     0.228386       0.000001
  --------------------------------------------------------
  Sum of atomic charges =    -0.000000

                    Cartesian Multipole Moments
 -----------------------------------------------------------------
    Charge (ESU x 10^10)
                -0.0000
    Dipole Moment (Debye)
         X      -0.6933      Y      -1.1048      Z       0.5676
       Tot       1.4225
    Quadrupole Moments (Debye-Ang)
        XX    -422.0799     XY     -23.0802     YY    -430.8774
        XZ     -31.1755     YZ      31.5277     ZZ    -453.8089

 Total job time:  57412.93s(wall), 400947.63s(cpu)
        *  Thank you very much for using Q-Chem.  Have a nice day.  *
