 Q-Chem 5.0, Q-Chem, Inc., Pleasanton, CA (2017)
 Q-Chem 5.0.1 for Intel X86 EM64T Linux

User input:
--------------------------------------------------------------
$rem
threads 8
jobtype	opt
method PBEh-3c
basis def2-mSVP
mem_static	512
mem_total	6096
sym_ignore	true
$end

$molecule
read incoords_2.mol
$end

--------------------------------------------------------------

   15   -1855.4801585252      8.91E-09 Convergence criterion met
 Total energy in the final basis set = -1855.48015853
   13   -1855.5084803712      5.50E-09 Convergence criterion met
 Total energy in the final basis set = -1855.50848037
   13   -1855.5182622321      5.72E-09 Convergence criterion met
 Total energy in the final basis set = -1855.51826223
   13   -1855.5227887259      5.53E-09 Convergence criterion met
 Total energy in the final basis set = -1855.52278873
   13   -1855.5254654105      5.09E-09 Convergence criterion met
 Total energy in the final basis set = -1855.52546541
   13   -1855.5272041368      3.96E-09 Convergence criterion met
 Total energy in the final basis set = -1855.52720414
   12   -1855.5284180174      8.94E-09 Convergence criterion met
 Total energy in the final basis set = -1855.52841802
   13   -1855.5292963485      4.09E-09 Convergence criterion met
   12   -1855.5308995714      9.37E-09 Convergence criterion met
 Total energy in the final basis set = -1855.53089957
   10   -1855.5308742156      9.11E-09 Convergence criterion met
 Total energy in the final basis set = -1855.53087422
   12   -1855.5307375340      7.80E-09 Convergence criterion met
 Total energy in the final basis set = -1855.53073753
   11   -1855.5308330265      6.72E-09 Convergence criterion met
 Total energy in the final basis set = -1855.53083303
   10   -1855.5308356258      3.71E-09 Convergence criterion met
 Total energy in the final basis set = -1855.53083563
    9   -1855.5308374694      8.69E-09 Convergence criterion met
 Total energy in the final basis set = -1855.53083747

             Standard Nuclear Orientation (Angstroms)
    I     Atom           X                Y                Z
 ----------------------------------------------------------------
    1      C       0.1016158411    -4.6909845973     1.1269694215
    2      C       0.0700386144    -4.5972235685     2.6509635172
    3      C       1.5079072724    -4.1530396453     0.8504994598
    4      C       2.1352013363    -4.0294408926    -0.3717710427
    5      H       1.6365339384    -4.3233423423    -1.2871212062
    6      C       3.4286240492    -3.5255468626    -0.4088736271
    7      H       3.9380293400    -3.4233733831    -1.3578900220
    8      C       4.0725088574    -3.1499631960     0.7648460984
    9      H       5.0801911059    -2.7593874108     0.7193485806
   10      C       3.4390777195    -3.2746245105     1.9926771212
   11      H       3.9505065559    -2.9866878672     2.9020823621
   12      C       2.1489587882    -3.7811612177     2.0305510925
   13      C      -0.9518511409    -4.9862814258     3.4923769778
   14      H      -1.8659077242    -5.4114662948     3.0959778896
   15      C      -0.7820732093    -4.8228905161     4.8609058346
   16      H      -1.5702726916    -5.1195928726     5.5398061864
   17      C       0.3950877390    -4.2817097008     5.3662008809
   18      H       0.5117120610    -4.1619857724     6.4348550326
   19      C       1.4229310859    -3.8982378033     4.5173057089
   20      H       2.3382857417    -3.4840590003     4.9200194819
   21      C       1.2546830093    -4.0608837209     3.1509022608
   22      C      -1.4483823657    -3.7555675861    -0.7659857244
   23      C      -2.1848856068    -2.6836360388    -1.2601159799
   24      H      -2.6368282875    -2.7664140710    -2.2400253214
   25      C      -2.3750268116    -1.5190362204    -0.5383925219
   26      C      -3.1465681302    -0.4569613691    -1.0937725547
   27      N      -3.7739623522     0.3841686432    -1.5664478695
   28      C      -0.8660731005    -3.6692119988     0.5059163264
   29      C      -1.0718167544    -2.4939859372     1.2288298402
   30      H      -0.6449641939    -2.3850345791     2.2148695606
   31      C      -1.8103413911    -1.4308277425     0.7349500694
   32      C      -1.9859881117    -0.2639555241     1.5352572905
   33      N      -2.1227266234     0.6714776960     2.1913796901
   34      H       5.5778169116    -6.8550543384    -0.4676464840
   35      H       7.2875053630    -8.4359901590     0.4014652953
   36      C       5.2910659200    -7.6781272486     0.1737331555
   37      C       6.2434169228    -8.5584688534     0.6559450996
   38      C       3.9594845190    -7.8271776732     0.5213010532
   39      H       3.2382104028    -7.1165293484     0.1437718820
   40      C       5.8412546004    -9.6187061565     1.4538693798
   41      H       6.5880186596   -10.3202435612     1.7993452797
   42      C       3.5659254818    -8.8711950576     1.3566237571
   43      C       4.5097207120    -9.8116252035     1.7918806446
   44      N       2.2430551157    -9.0222801052     1.7898982645
   45      C       2.9112193038   -10.6081086931     3.4692459898
   46      C       2.0004021919    -9.6467540467     3.0175889688
   47      H       3.4047492820   -11.9120611490     5.0934285877
   48      C       2.7059520574   -11.1773510982     4.7174822062
   49      C       0.8836904719    -9.3218289021     3.7854517296
   50      C       1.6037273483   -10.8493213450     5.4924687404
   51      C       0.6865072776    -9.9306062429     5.0124444843
   52      H       0.1720321022    -8.5863188838     3.4357790847
   53      H       1.4599201380   -11.3182174920     6.4564735891
   54      H      -0.1843375941    -9.6688206251     5.5991397476
   55      C       3.9960329910   -11.0480721779     2.5076037022
   56      C       5.1077691343   -11.8244692339     3.2028094821
   57      C       3.3539689748   -11.9812928814     1.4575309117
   58      C       1.1911734521    -8.3008781555     1.1768143926
   59      C       0.2601298091    -8.9703491278     0.3962654803
   60      C      -0.7567385716    -8.2471052435    -0.1864388062
   61      C      -0.8807086582    -6.8636372542    -0.0298960394
   62      C       0.0460100276    -6.1880315298     0.7660116000
   63      C       1.0577786514    -6.9411746081     1.3662416467
   64      H       1.7812722516    -6.4558511791     2.0077579731
   65      H       0.3408051544   -10.0390989420     0.2465196058
   66      H      -1.4775539855    -8.7617273497    -0.8104241554
   67      C      -1.9622566171    -6.1870449708    -0.8180378772
   68      C      -1.4161663355    -4.9973031893    -1.6021258592
   69      H      -2.7882835323    -5.8611290220    -0.1792025551
   70      H      -2.3898424473    -6.9132153271    -1.5108466871
   71      H      -2.0168786297    -4.8338797669    -2.4981185837
   72      H      -0.4070067145    -5.2264737873    -1.9543907519
   73      H       2.5466799979   -11.4912641030     0.9140451408
   74      H       2.9399999728   -12.8684258084     1.9404840151
   75      H       4.0982968526   -12.3027982933     0.7268299777
   76      H       5.6126578409   -11.2285417443     3.9640108239
   77      H       5.8526674699   -12.1665385591     2.4846351653
   78      H       4.7139311626   -12.7230842339     3.6776361279
 ----------------------------------------------------------------

    9   -1855.5308369398      6.53E-09 Convergence criterion met
 Total energy in the final basis set = -1855.53083694
 Final energy is   -1855.53083693978
 **  OPTIMIZATION CONVERGED  **

                    Orbital Energies (a.u.)
 --------------------------------------------------------------

 Alpha MOs
 -- Occupied --
-14.678 -14.657 -14.654 -10.522 -10.520 -10.512 -10.508 -10.501
-10.500 -10.498 -10.498 -10.493 -10.491 -10.491 -10.490 -10.487
-10.480 -10.478 -10.476 -10.474 -10.474 -10.474 -10.469 -10.469
-10.468 -10.467 -10.467 -10.467 -10.466 -10.465 -10.465 -10.465
-10.464 -10.463 -10.462 -10.451 -10.451 -10.444 -10.444 -10.443
-10.443 -10.441 -10.441 -10.437 -10.437 -10.431 -10.427  -1.091
 -1.042  -1.030  -1.019  -1.004  -0.988  -0.969  -0.961  -0.958
 -0.939  -0.934  -0.911  -0.899  -0.890  -0.885  -0.858  -0.857
 -0.848  -0.846  -0.834  -0.826  -0.819  -0.808  -0.795  -0.773
 -0.772  -0.747  -0.732  -0.725  -0.715  -0.711  -0.702  -0.692
 -0.682  -0.679  -0.673  -0.671  -0.667  -0.646  -0.619  -0.613
 -0.612  -0.611  -0.599  -0.584  -0.582  -0.573  -0.567  -0.562
 -0.540  -0.539  -0.537  -0.533  -0.530  -0.526  -0.524  -0.520
 -0.516  -0.511  -0.507  -0.503  -0.502  -0.501  -0.498  -0.493
 -0.492  -0.490  -0.487  -0.484  -0.474  -0.470  -0.461  -0.451
 -0.447  -0.444  -0.440  -0.439  -0.438  -0.436  -0.434  -0.431
 -0.429  -0.426  -0.424  -0.421  -0.420  -0.417  -0.415  -0.414
 -0.411  -0.404  -0.402  -0.399  -0.397  -0.396  -0.393  -0.380
 -0.374  -0.362  -0.350  -0.338  -0.322  -0.314  -0.307  -0.305
 -0.298  -0.291  -0.288  -0.280  -0.271  -0.231

          Ground-State Mulliken Net Atomic Charges

     Atom                 Charge (a.u.)
  ----------------------------------------
      1 C                    -0.437070
      2 C                     0.054496
      3 C                     0.141294
      4 C                    -0.271954
      5 H                     0.218430
      6 C                    -0.229035
      7 H                     0.227748
      8 C                    -0.212993
      9 H                     0.229417
     10 C                    -0.321699
     11 H                     0.214333
     12 C                     0.146277
     13 C                    -0.263226
     14 H                     0.223431
     15 C                    -0.230954
     16 H                     0.229218
     17 C                    -0.210315
     18 H                     0.230668
     19 C                    -0.327057
     20 H                     0.215538
     21 C                     0.158027
     22 C                     0.104470
     23 C                    -0.319335
     24 H                     0.246642
     25 C                     0.079126
     26 C                    -0.007248
     27 N                    -0.153599
     28 C                     0.214634
     29 C                    -0.299555
     30 H                     0.281734
     31 C                     0.092616
     32 C                    -0.008968
     33 N                    -0.154562
     34 H                     0.213942
     35 H                     0.211319
     36 C                    -0.232850
     37 C                    -0.219182
     38 C                    -0.293787
     39 H                     0.253933
     40 C                    -0.326530
     41 H                     0.213697
     42 C                     0.315658
     43 C                     0.157645
     44 N                    -0.713567
     45 C                     0.171866
     46 C                     0.309668
     47 H                     0.213071
     48 C                    -0.328584
     49 C                    -0.280723
     50 C                    -0.217521
     51 C                    -0.236381
     52 H                     0.244310
     53 H                     0.212213
     54 H                     0.214503
     55 C                    -0.226580
     56 C                    -0.666311
     57 C                    -0.597625
     58 C                     0.229844
     59 C                    -0.234921
     60 C                    -0.298818
     61 C                     0.054703
     62 C                     0.234330
     63 C                    -0.290443
     64 H                     0.282626
     65 H                     0.234622
     66 H                     0.218716
     67 C                    -0.521231
     68 C                    -0.541334
     69 H                     0.251821
     70 H                     0.248419
     71 H                     0.252184
     72 H                     0.257737
     73 H                     0.232414
     74 H                     0.220179
     75 H                     0.221388
     76 H                     0.238597
     77 H                     0.228357
     78 H                     0.228092
  ----------------------------------------
  Sum of atomic charges =    -0.000000

                    Cartesian Multipole Moments
 -----------------------------------------------------------------
    Charge (ESU x 10^10)
                -0.0000
    Dipole Moment (Debye)
         X       2.8368      Y      -6.9281      Z      -0.6466
       Tot       7.5143
    Quadrupole Moments (Debye-Ang)
        XX    -265.7362     XY      17.5963     YY    -248.1087
        XZ       1.3476     YZ      -0.1245     ZZ    -255.1375

 Total job time:  19055.15s(wall), 90604.77s(cpu)
        *  Thank you very much for using Q-Chem.  Have a nice day.  *
