 Q-Chem 5.0, Q-Chem, Inc., Pleasanton, CA (2017)
 Q-Chem 5.0.1 for Intel X86 EM64T Linux

User input:
--------------------------------------------------------------
$rem
threads 8
jobtype	sp
method PBEh-3c
basis def2-mSVP
mem_static	1024
mem_total	14000
sym_ignore	true
cis_n_roots             6
cis_singlets            true
cis_triplets		true
rpa                     false
calc_soc 		true
cis_moments             true
cis_relaxed_density	true
$end

$molecule
read gsopt_2_b.mol
$end

--------------------------------------------------------------

             Standard Nuclear Orientation (Angstroms)
    I     Atom           X                Y                Z
 ----------------------------------------------------------------
    1      N       0.0000000000     0.0000000000     0.0000000000
    2      C       0.0000000000     0.0000000000     1.3972170000
    3      C       1.1853310448     0.0000000000     2.1324699066
    4      H       2.1434013838     0.0456723931     1.6350154542
    5      C       1.1498993600    -0.0641402118     3.5144796748
    6      H       2.0804799312    -0.0682369615     4.0670883133
    7      C      -0.0606202236    -0.1375983907     4.1798316062
    8      H      -0.0942673936    -0.2066733967     5.2586600023
    9      C      -1.2369064783    -0.0964291797     3.4469744656
   10      H      -2.1776923465    -0.1222584622     3.9785673183
   11      C      -1.2332327504     0.0013713327     2.0629134161
   12      C      -1.0972127828    -0.5315500756    -0.6865354114
   13      C      -0.9515977960    -1.0766639370    -1.9612072762
   14      H       0.0074356546    -1.0611059005    -2.4598592424
   15      C      -2.0358891350    -1.6550133696    -2.5964941022
   16      H      -1.9064222060    -2.0764051405    -3.5847845840
   17      C      -3.2662096216    -1.7100829750    -1.9656403301
   18      H      -4.1129205193    -2.1768159563    -2.4504485097
   19      C      -3.4096809783    -1.1459526201    -0.7070481265
   20      H      -4.3810507063    -1.1794069112    -0.2334061456
   21      C      -2.3484727904    -0.5287939037    -0.0597529066
   22      C       1.2147351722     0.1836950928    -0.7050180874
   23      C       1.4142412119     1.3681476889    -1.3865337013
   24      H       0.6227075111     2.1022091914    -1.3418330013
   25      C       2.1859250964    -0.8052174365    -0.7528074410
   26      H       2.0345922266    -1.7472629265    -0.2413749824
   27      C       3.3529044660    -0.5536259341    -1.4443682548
   28      H       4.1326192245    -1.3059506588    -1.4542845634
   29      C       3.5668129250     0.6398965801    -2.1331796223
   30      C       2.5693970222     1.6168929356    -2.1300894539
   31      C       4.9096599812     0.8492401016    -2.7652044807
   32      H       5.5601030869     0.0198343279    -2.4836530808
   33      H       4.8595527339     0.8310132398    -3.8582437720
   34      C      -2.4833050256     0.2407687353     1.2386098650
   35      C      -3.7556884924    -0.1202787881     1.9956613091
   36      H      -4.6391810436     0.0973213997     1.3962325211
   37      H      -3.8537751368     0.4776367606     2.9012958393
   38      H      -3.7813018859    -1.1742151861     2.2755835963
   39      C       5.5344180577     2.1638868022    -2.3006729687
   40      H       6.6225415648     2.0849764032    -2.3253462316
   41      H       5.2692107480     2.3429331357    -1.2549232316
   42      C       5.1200676752     3.3109141724    -3.1731041835
   43      C       6.1354835039     4.1159862222    -3.6882149088
   44      H       7.1578087603     3.9232696822    -3.3890814089
   45      C       5.8886201245     5.1413191076    -4.5806666061
   46      C       3.7978785982     3.5532979852    -3.5522558868
   47      C       3.5582503622     4.5796143818    -4.4710165337
   48      H       2.5481117488     4.7796550442    -4.7997855197
   49      C       4.5694183118     5.3664915605    -4.9891122023
   50      C       6.9716835635     5.9242704732    -5.0760720795
   51      N       7.8646784788     6.5406751059    -5.4598215940
   52      C       4.2576187429     6.3895849427    -5.9317446813
   53      N       3.9935118922     7.2094980821    -6.6947525813
   54      C       2.5322245554     2.8692633754    -3.0173605531
   55      C       1.7218131269     3.9630947276    -2.3397598505
   56      C       2.0691515738     4.6836769553    -1.2173109436
   57      H       3.0124354887     4.5082464094    -0.7143456007
   58      C       1.1769938087     5.6348893473    -0.7417510834
   59      H       1.4252337363     6.2127697230     0.1382600331
   60      C      -0.0351527164     5.8497017789    -1.3891826059
   61      H      -0.7183173220     6.5957809685    -1.0062546358
   62      C      -0.3802835621     5.1210120898    -2.5186092529
   63      H      -1.3270870088     5.2953855946    -3.0132429037
   64      C       0.5082530359     4.1695841915    -2.9941272356
   65      C       0.4320207638     3.2526629955    -4.1308273584
   66      C      -0.5528275137     3.0464318746    -5.0846443154
   67      H      -1.4735047653     3.6150796578    -5.0672197795
   68      C      -0.3400895480     2.0930085209    -6.0700119205
   69      H      -1.1002275719     1.9214293832    -6.8201915166
   70      C       0.8373582224     1.3539908957    -6.1067826762
   71      H       0.9844899245     0.6161072562    -6.8841854996
   72      C       1.8242238370     1.5568803212    -5.1521529516
   73      H       2.7400035175     0.9784159658    -5.1748383792
   74      C       1.6081538098     2.5059791915    -4.1742392710
   75      C      -2.5330958644     1.7439834992     0.8945923853
   76      H      -1.6397519353     2.0669097492     0.3601743222
   77      H      -2.6081168678     2.3393800476     1.8060648838
   78      H      -3.3969702314     1.9610609842     0.2640789205
 ----------------------------------------------------------------

   15   -1855.5301806233      7.62E-09 Convergence criterion met
 Total energy in the final basis set = -1855.53018062

         TDDFT/TDA Excitation Energies
 ---------------------------------------------------

 Excited state   1: excitation energy (eV) =    3.3895
 Total energy for state  1:                 -1855.40561745 au
    Multiplicity: Triplet
    Trans. Mom.:  0.0000 X   0.0000 Y   0.0000 Z
    Strength   :     0.0000000000
    D(157) --> V(  2) amplitude =  0.5116
    D(157) --> V(  3) amplitude = -0.6168

 Excited state   2: excitation energy (eV) =    3.4650
 Total energy for state  2:                 -1855.40284282 au
    Multiplicity: Triplet
    Trans. Mom.:  0.0000 X   0.0000 Y   0.0000 Z
    Strength   :     0.0000000000
    D(148) --> V(  1) amplitude =  0.2884
    D(149) --> V(  1) amplitude =  0.2771
    D(149) --> V(  2) amplitude =  0.2443
    D(150) --> V(  1) amplitude =  0.4697
    D(152) --> V(  1) amplitude =  0.4573
    D(157) --> V(  1) amplitude =  0.2642
    D(157) --> V(  3) amplitude = -0.2452

 Excited state   3: excitation energy (eV) =    3.7505
 Total energy for state  3:                 -1855.39235274 au
    Multiplicity: Triplet
    Trans. Mom.:  0.0000 X   0.0000 Y   0.0000 Z
    Strength   :     0.0000000000
    D(155) --> V( 10) amplitude =  0.2442
    D(156) --> V(  7) amplitude =  0.2336
    D(158) --> V(  8) amplitude = -0.6350
    D(158) --> V(  9) amplitude = -0.4833

 Excited state   4: excitation energy (eV) =    3.8737
 Total energy for state  4:                 -1855.38782457 au
    Multiplicity: Triplet
    Trans. Mom.:  0.0000 X   0.0000 Y   0.0000 Z
    Strength   :     0.0000000000
    D(151) --> V(  6) amplitude = -0.2924
    D(152) --> V(  4) amplitude =  0.2640
    D(153) --> V(  4) amplitude = -0.3521
    D(154) --> V(  5) amplitude = -0.2327
    D(157) --> V(  4) amplitude = -0.2124
    D(158) --> V(  4) amplitude = -0.2444

 Excited state   5: excitation energy (eV) =    3.9459
 Total energy for state  5:                 -1855.38516996 au
    Multiplicity: Triplet
    Trans. Mom.:  0.0000 X   0.0000 Y   0.0000 Z
    Strength   :     0.0000000000
    D(158) --> V(  1) amplitude =  0.9911

 Excited state   6: excitation energy (eV) =    3.9462
 Total energy for state  6:                 -1855.38516144 au
    Multiplicity: Singlet
    Trans. Mom.:  0.0162 X   0.0264 Y  -0.0213 Z
    Strength   :     0.0001369935
    D(158) --> V(  1) amplitude =  0.9969

 Excited state   7: excitation energy (eV) =    4.0326
 Total energy for state  7:                 -1855.38198420 au
    Multiplicity: Triplet
    Trans. Mom.:  0.0000 X   0.0000 Y   0.0000 Z
    Strength   :     0.0000000000
    D(154) --> V(  8) amplitude =  0.2260
    D(155) --> V(  7) amplitude = -0.3511
    D(156) --> V(  8) amplitude =  0.2253
    D(156) --> V( 10) amplitude = -0.2618
    D(158) --> V( 11) amplitude =  0.5044
    D(158) --> V( 12) amplitude = -0.2379

 Excited state   8: excitation energy (eV) =    4.2283
 Total energy for state  8:                 -1855.37479283 au
    Multiplicity: Singlet
    Trans. Mom.:  0.1687 X  -0.0146 Y   0.0110 Z
    Strength   :     0.0029843011
    D(158) --> V(  2) amplitude =  0.7134
    D(158) --> V(  3) amplitude = -0.3117
    D(158) --> V(  4) amplitude = -0.5037
    D(158) --> V(  5) amplitude = -0.3457

 Excited state   9: excitation energy (eV) =    4.2970
 Total energy for state  9:                 -1855.37226771 au
    Multiplicity: Singlet
    Trans. Mom.: -0.2185 X  -0.1539 Y   0.1571 Z
    Strength   :     0.0101191116
    D(158) --> V(  2) amplitude =  0.3906
    D(158) --> V(  3) amplitude = -0.3234
    D(158) --> V(  4) amplitude =  0.7251
    D(158) --> V(  6) amplitude = -0.4070

 Excited state  10: excitation energy (eV) =    4.4789
 Total energy for state 10:                 -1855.36558407 au
    Multiplicity: Singlet
    Trans. Mom.:  0.7705 X   0.3390 Y  -0.1844 Z
    Strength   :     0.0814964196
    D(157) --> V(  1) amplitude =  0.9732

 Excited state  11: excitation energy (eV) =    4.5739
 Total energy for state 11:                 -1855.36209260 au
    Multiplicity: Singlet
    Trans. Mom.: -0.0234 X  -0.0342 Y   0.0258 Z
    Strength   :     0.0002669400
    D(158) --> V(  2) amplitude =  0.2888
    D(158) --> V(  3) amplitude =  0.8681
    D(158) --> V(  5) amplitude = -0.2877
    D(158) --> V(  6) amplitude = -0.2543

 Excited state  12: excitation energy (eV) =    4.7258
 Total energy for state 12:                 -1855.35651141 au
    Multiplicity: Singlet
    Trans. Mom.:  0.0623 X  -0.0615 Y   0.0795 Z
    Strength   :     0.0016179654
    D(158) --> V(  2) amplitude = -0.4967
    D(158) --> V(  5) amplitude = -0.6048
    D(158) --> V(  6) amplitude = -0.5444

 ---------------------------------------------------

                    Orbital Energies (a.u.)
 --------------------------------------------------------------

 Alpha MOs
 -- Occupied --
-14.680 -14.656 -14.653 -10.521 -10.519 -10.509 -10.507 -10.500
-10.499 -10.498 -10.497 -10.492 -10.492 -10.491 -10.490 -10.487
-10.479 -10.476 -10.475 -10.474 -10.474 -10.473 -10.470 -10.469
-10.467 -10.466 -10.466 -10.466 -10.466 -10.465 -10.465 -10.464
-10.464 -10.463 -10.462 -10.452 -10.451 -10.445 -10.444 -10.444
-10.443 -10.443 -10.441 -10.438 -10.437 -10.431 -10.426  -1.093
 -1.042  -1.030  -1.019  -1.003  -0.988  -0.968  -0.961  -0.959
 -0.938  -0.933  -0.912  -0.898  -0.891  -0.885  -0.858  -0.856
 -0.850  -0.846  -0.835  -0.825  -0.820  -0.808  -0.795  -0.773
 -0.772  -0.747  -0.731  -0.726  -0.714  -0.710  -0.704  -0.692
 -0.681  -0.678  -0.673  -0.672  -0.666  -0.646  -0.619  -0.614
 -0.613  -0.611  -0.595  -0.585  -0.581  -0.574  -0.568  -0.560
 -0.541  -0.540  -0.537  -0.533  -0.530  -0.524  -0.522  -0.521
 -0.516  -0.511  -0.505  -0.504  -0.502  -0.501  -0.499  -0.494
 -0.492  -0.490  -0.487  -0.485  -0.475  -0.469  -0.460  -0.452
 -0.448  -0.444  -0.441  -0.439  -0.437  -0.435  -0.434  -0.430
 -0.428  -0.425  -0.424  -0.422  -0.419  -0.417  -0.416  -0.413
 -0.412  -0.404  -0.399  -0.398  -0.397  -0.395  -0.393  -0.379
 -0.374  -0.364  -0.349  -0.339  -0.321  -0.312  -0.309  -0.303
 -0.297  -0.292  -0.288  -0.282  -0.271  -0.231

          Ground-State Mulliken Net Atomic Charges

     Atom                 Charge (a.u.)
  ----------------------------------------
      1 N                    -0.705973
      2 C                     0.322176
      3 C                    -0.300006
      4 H                     0.244656
      5 C                    -0.232524
      6 H                     0.215058
      7 C                    -0.220088
      8 H                     0.212553
      9 C                    -0.323761
     10 H                     0.213943
     11 C                     0.159448
     12 C                     0.311848
     13 C                    -0.283535
     14 H                     0.245170
     15 C                    -0.235031
     16 H                     0.215435
     17 C                    -0.218415
     18 H                     0.211952
     19 C                    -0.327464
     20 H                     0.212893
     21 C                     0.171690
     22 C                     0.215635
     23 C                    -0.279682
     24 H                     0.262276
     25 C                    -0.244818
     26 H                     0.251186
     27 C                    -0.301809
     28 H                     0.219266
     29 C                     0.084384
     30 C                     0.200522
     31 C                    -0.533709
     32 H                     0.250488
     33 H                     0.248445
     34 C                    -0.232680
     35 C                    -0.664908
     36 H                     0.227776
     37 H                     0.227639
     38 H                     0.238752
     39 C                    -0.526277
     40 H                     0.249034
     41 H                     0.259152
     42 C                     0.083114
     43 C                    -0.320749
     44 H                     0.247115
     45 C                     0.078747
     46 C                     0.243446
     47 C                    -0.277033
     48 H                     0.280926
     49 C                     0.079698
     50 C                    -0.006819
     51 N                    -0.154716
     52 C                    -0.009648
     53 N                    -0.155019
     54 C                    -0.440430
     55 C                     0.073706
     56 C                    -0.255726
     57 H                     0.220093
     58 C                    -0.230060
     59 H                     0.229650
     60 C                    -0.213296
     61 H                     0.229597
     62 C                    -0.328919
     63 H                     0.214823
     64 C                     0.154981
     65 C                     0.148133
     66 C                    -0.325197
     67 H                     0.213352
     68 C                    -0.212820
     69 H                     0.228619
     70 C                    -0.227323
     71 H                     0.227418
     72 C                    -0.267081
     73 H                     0.218264
     74 C                     0.130711
     75 C                    -0.595946
     76 H                     0.238901
     77 H                     0.219973
     78 H                     0.218813
  ----------------------------------------
  Sum of atomic charges =     0.000000

                    Cartesian Multipole Moments
 -----------------------------------------------------------------
    Charge (ESU x 10^10)
                 0.0000
    Dipole Moment (Debye)
         X      -2.7323      Y      -5.4545      Z       3.9339
       Tot       7.2589
    Quadrupole Moments (Debye-Ang)
        XX    -277.5565     XY     -54.3613     YY    -327.8363
        XZ      38.5382     YZ      60.8231     ZZ    -300.1094

 Total job time:  5520.33s(wall), 25753.71s(cpu)
        *  Thank you very much for using Q-Chem.  Have a nice day.  *
