 Q-Chem 5.0, Q-Chem, Inc., Pleasanton, CA (2017)
 Q-Chem 5.0.1 for Intel X86 EM64T Linux

User input:
--------------------------------------------------------------
$rem
threads 8
jobtype	sp
method PBEh-3c
basis def2-mSVP
mem_static	1024
mem_total	14000
sym_ignore	true
cis_n_roots             6
cis_singlets            true
cis_triplets		true
rpa                     false
calc_soc 		true
cis_moments             true
cis_relaxed_density	true
$end

$molecule
read gsopt_2.mol
$end

--------------------------------------------------------------

             Standard Nuclear Orientation (Angstroms)
    I     Atom           X                Y                Z
 ----------------------------------------------------------------
    1      N       0.0000000000     0.0000000000     0.0000000000
    2      C       0.0000000000     0.0000000000     1.3985970000
    3      C       1.1916130225     0.0000000000     2.1212958594
    4      H       2.1442172964     0.0151363726     1.6094181373
    5      C       1.1622384054    -0.0347984997     3.5043823611
    6      H       2.0947019852    -0.0351302971     4.0535864350
    7      C      -0.0463425393    -0.0887650340     4.1768196448
    8      H      -0.0735580252    -0.1286430459     5.2573375617
    9      C      -1.2283883129    -0.0756045930     3.4517674654
   10      H      -2.1669156222    -0.0967676246     3.9885826380
   11      C      -1.2296047228    -0.0070705469     2.0662830075
   12      C      -1.0669429696    -0.6028541916    -0.6773034480
   13      C      -0.9205233037    -1.1633585179    -1.9449870274
   14      H       0.0234485340    -1.1125075966    -2.4685482217
   15      C      -1.9862184259    -1.8092750091    -2.5476598045
   16      H      -1.8492965274    -2.2467577538    -3.5279165930
   17      C      -3.2029254819    -1.9100540037    -1.8965310207
   18      H      -4.0334638729    -2.4289071858    -2.3557474315
   19      C      -3.3551921149    -1.3160675263    -0.6529411206
   20      H      -4.3190083958    -1.3719012701    -0.1660067866
   21      C      -2.3144486014    -0.6345422730    -0.0390781615
   22      C       1.1984701548     0.3271705296    -0.6777737948
   23      C       2.0696256612    -0.6572575208    -1.0954587789
   24      H       1.8033565626    -1.6823563612    -0.8745559611
   25      C       1.5217512476     1.6573145993    -0.9024883606
   26      H       0.8570246651     2.4442310200    -0.5707352567
   27      C       2.6954967072     1.9505719483    -1.5604917881
   28      H       2.9455784358     2.9869205742    -1.7533886918
   29      C       3.2534148854    -0.3797787165    -1.7830811605
   30      C       3.5680433697     0.9595991906    -2.0192887389
   31      C       4.7472311140     1.4157898909    -2.8255737379
   32      H       4.6306894965     2.4800121520    -3.0353021880
   33      H       5.6831034157     1.3219662165    -2.2670109680
   34      C      -2.4789068376     0.1817658776     1.2303833596
   35      C      -3.7478605005    -0.1761082523     1.9944145271
   36      H      -4.6339065185     0.0089102625     1.3874958473
   37      H      -3.8554060864     0.4490860831     2.8807802474
   38      H      -3.7587513312    -1.2203483188     2.3089197064
   39      C       4.8516934888     0.6474432980    -4.1398126846
   40      H       5.3398908444     1.2652018338    -4.8950635257
   41      H       3.8481482628     0.4425047226    -4.5217931335
   42      C       5.6470041689    -0.6076609811    -3.9546933680
   43      C       6.7869324524    -0.7512863844    -4.7392779905
   44      H       7.0081614718     0.0021487043    -5.4840725645
   45      C       7.6588866186    -1.8150331326    -4.5927530653
   46      C       7.3796844467    -2.7684171299    -3.6123673413
   47      C       6.2428143412    -2.6319767934    -2.8322704698
   48      H       6.0573693432    -3.3936477663    -2.0894275238
   49      C       5.3519714310    -1.5683456036    -2.9778024655
   50      C       8.8157462420    -1.9046577504    -5.4206229153
   51      N       9.7418737678    -1.9517247607    -6.1022518414
   52      C       8.2496178693    -3.8780188376    -3.4003908176
   53      N       8.9452513840    -4.7764624404    -3.2183928191
   54      C       4.0611920396    -1.6413404196    -2.1443105483
   55      C       4.3091259897    -2.4011347719    -0.8429315691
   56      C       5.0420624055    -1.9778510795     0.2466727488
   57      H       5.5270044531    -1.0092210065     0.2471445479
   58      C       5.1429130646    -2.8208630191     1.3455600377
   59      H       5.7134269770    -2.5107113826     2.2107281611
   60      C       4.5143279652    -4.0613398627     1.3432371782
   61      H       4.6020762535    -4.7056310560     2.2076126766
   62      C       3.7725650815    -4.4803061791     0.2485270634
   63      H       3.2812689011    -5.4447381649     0.2582873108
   64      C       3.6710847026    -3.6396202656    -0.8490923149
   65      C       2.9536475324    -3.7880096760    -2.1125890719
   66      C       2.1514201179    -4.8104208362    -2.5958360761
   67      H       1.9843041995    -5.7082056160    -2.0148536229
   68      C       1.5546736984    -4.6610457356    -3.8391880178
   69      H       0.9235352639    -5.4486122735    -4.2283482214
   70      C       1.7547415232    -3.5080427064    -4.5900706030
   71      H       1.2801836143    -3.4071675796    -5.5571202569
   72      C       2.5610674452    -2.4854091650    -4.1081073804
   73      H       2.7136591559    -1.5873424093    -4.6938587766
   74      C       3.1526631171    -2.6361845220    -2.8711753355
   75      C      -2.5695647189     1.6726041998     0.8367075115
   76      H      -1.6925258820     2.0029067101     0.2808994749
   77      H      -3.4453631140     1.8491401586     0.2097102738
   78      H      -2.6532124216     2.2964623806     1.7285723969
 ----------------------------------------------------------------

   15   -1855.5307275287      7.36E-09 Convergence criterion met
 Total energy in the final basis set = -1855.53072753

         TDDFT/TDA Excitation Energies
 ---------------------------------------------------

 Excited state   1: excitation energy (eV) =    3.3693
 Total energy for state  1:                 -1855.40690815 au
    Multiplicity: Triplet
    Trans. Mom.:  0.0000 X   0.0000 Y   0.0000 Z
    Strength   :     0.0000000000
    D(151) --> V(  1) amplitude = -0.2395
    D(157) --> V(  2) amplitude = -0.5830
    D(157) --> V(  3) amplitude =  0.5004

 Excited state   2: excitation energy (eV) =    3.4586
 Total energy for state  2:                 -1855.40362490 au
    Multiplicity: Triplet
    Trans. Mom.:  0.0000 X   0.0000 Y   0.0000 Z
    Strength   :     0.0000000000
    D(148) --> V(  1) amplitude =  0.2647
    D(149) --> V(  1) amplitude =  0.2652
    D(149) --> V(  2) amplitude =  0.2312
    D(150) --> V(  1) amplitude =  0.4349
    D(151) --> V(  1) amplitude = -0.5020
    D(157) --> V(  3) amplitude = -0.2715

 Excited state   3: excitation energy (eV) =    3.7724
 Total energy for state  3:                 -1855.39209430 au
    Multiplicity: Triplet
    Trans. Mom.:  0.0000 X   0.0000 Y   0.0000 Z
    Strength   :     0.0000000000
    D(155) --> V( 10) amplitude = -0.2480
    D(156) --> V(  7) amplitude = -0.2181
    D(158) --> V(  8) amplitude =  0.2377
    D(158) --> V(  9) amplitude = -0.7184

 Excited state   4: excitation energy (eV) =    3.8499
 Total energy for state  4:                 -1855.38924626 au
    Multiplicity: Triplet
    Trans. Mom.:  0.0000 X   0.0000 Y   0.0000 Z
    Strength   :     0.0000000000
    D(158) --> V(  1) amplitude =  0.9710

 Excited state   5: excitation energy (eV) =    3.8527
 Total energy for state  5:                 -1855.38914240 au
    Multiplicity: Singlet
    Trans. Mom.:  0.0471 X  -0.0162 Y  -0.0185 Z
    Strength   :     0.0002668502
    D(158) --> V(  1) amplitude =  0.9952

 Excited state   6: excitation energy (eV) =    3.8970
 Total energy for state  6:                 -1855.38751359 au
    Multiplicity: Triplet
    Trans. Mom.:  0.0000 X   0.0000 Y   0.0000 Z
    Strength   :     0.0000000000
    D(152) --> V(  6) amplitude =  0.4039
    D(153) --> V(  5) amplitude =  0.2470
    D(154) --> V(  5) amplitude = -0.2523
    D(157) --> V(  5) amplitude =  0.2485
    D(158) --> V(  6) amplitude =  0.2331

 Excited state   7: excitation energy (eV) =    4.0213
 Total energy for state  7:                 -1855.38294745 au
    Multiplicity: Triplet
    Trans. Mom.:  0.0000 X   0.0000 Y   0.0000 Z
    Strength   :     0.0000000000
    D(154) --> V(  9) amplitude =  0.3033
    D(155) --> V(  7) amplitude = -0.3417
    D(156) --> V(  9) amplitude =  0.2412
    D(156) --> V( 10) amplitude = -0.2863
    D(158) --> V( 11) amplitude =  0.5480

 Excited state   8: excitation energy (eV) =    4.2469
 Total energy for state  8:                 -1855.37465586 au
    Multiplicity: Singlet
    Trans. Mom.:  0.0654 X  -0.0192 Y  -0.0766 Z
    Strength   :     0.0010927541
    D(158) --> V(  2) amplitude =  0.9440
    D(158) --> V(  3) amplitude = -0.2211

 Excited state   9: excitation energy (eV) =    4.4086
 Total energy for state  9:                 -1855.36871350 au
    Multiplicity: Singlet
    Trans. Mom.:  0.4998 X   0.1957 Y  -0.3640 Z
    Strength   :     0.0454278282
    D(157) --> V(  1) amplitude =  0.9695

 Excited state  10: excitation energy (eV) =    4.4402
 Total energy for state 10:                 -1855.36755376 au
    Multiplicity: Singlet
    Trans. Mom.:  0.2862 X  -0.0974 Y  -0.3382 Z
    Strength   :     0.0223886566
    D(158) --> V(  3) amplitude =  0.5621
    D(158) --> V(  5) amplitude = -0.4039
    D(158) --> V(  6) amplitude = -0.6815

 Excited state  11: excitation energy (eV) =    4.4486
 Total energy for state 11:                 -1855.36724434 au
    Multiplicity: Singlet
    Trans. Mom.: -0.2376 X  -0.1202 Y   0.1809 Z
    Strength   :     0.0112971933
    D(158) --> V(  4) amplitude =  0.6543
    D(158) --> V(  5) amplitude = -0.5583
    D(158) --> V(  6) amplitude =  0.4188

 Excited state  12: excitation energy (eV) =    4.7552
 Total energy for state 12:                 -1855.35597750 au
    Multiplicity: Singlet
    Trans. Mom.: -0.1054 X   0.0195 Y   0.1439 Z
    Strength   :     0.0037503761
    D(158) --> V(  2) amplitude =  0.3050
    D(158) --> V(  3) amplitude =  0.7850
    D(158) --> V(  6) amplitude =  0.4521

 ---------------------------------------------------

                    Orbital Energies (a.u.)
 --------------------------------------------------------------

 Alpha MOs
 -- Occupied --
-14.678 -14.657 -14.654 -10.522 -10.520 -10.512 -10.508 -10.501
-10.500 -10.498 -10.498 -10.493 -10.491 -10.491 -10.490 -10.487
-10.480 -10.478 -10.476 -10.474 -10.474 -10.474 -10.469 -10.469
-10.468 -10.467 -10.467 -10.467 -10.466 -10.465 -10.465 -10.465
-10.464 -10.463 -10.462 -10.451 -10.451 -10.444 -10.444 -10.443
-10.443 -10.441 -10.441 -10.437 -10.437 -10.431 -10.427  -1.091
 -1.042  -1.030  -1.019  -1.004  -0.988  -0.969  -0.961  -0.958
 -0.939  -0.934  -0.911  -0.899  -0.890  -0.885  -0.858  -0.857
 -0.848  -0.846  -0.834  -0.826  -0.819  -0.808  -0.795  -0.773
 -0.772  -0.747  -0.732  -0.725  -0.715  -0.711  -0.702  -0.692
 -0.682  -0.679  -0.673  -0.671  -0.667  -0.646  -0.619  -0.613
 -0.612  -0.611  -0.599  -0.584  -0.582  -0.573  -0.567  -0.562
 -0.540  -0.539  -0.537  -0.533  -0.530  -0.526  -0.524  -0.520
 -0.516  -0.510  -0.507  -0.503  -0.502  -0.501  -0.498  -0.493
 -0.492  -0.490  -0.487  -0.484  -0.474  -0.470  -0.461  -0.451
 -0.447  -0.444  -0.440  -0.439  -0.438  -0.436  -0.434  -0.431
 -0.429  -0.426  -0.424  -0.421  -0.420  -0.417  -0.415  -0.414
 -0.411  -0.404  -0.402  -0.399  -0.397  -0.396  -0.393  -0.380
 -0.374  -0.362  -0.350  -0.338  -0.322  -0.314  -0.307  -0.305
 -0.298  -0.291  -0.288  -0.280  -0.271  -0.231

          Ground-State Mulliken Net Atomic Charges

     Atom                 Charge (a.u.)
  ----------------------------------------
      1 N                    -0.713134
      2 C                     0.309028
      3 C                    -0.280342
      4 H                     0.244258
      5 C                    -0.236377
      6 H                     0.214510
      7 C                    -0.217509
      8 H                     0.212174
      9 C                    -0.328697
     10 H                     0.213062
     11 C                     0.172509
     12 C                     0.315170
     13 C                    -0.293704
     14 H                     0.253997
     15 C                    -0.232807
     16 H                     0.213928
     17 C                    -0.219191
     18 H                     0.211321
     19 C                    -0.326290
     20 H                     0.213687
     21 C                     0.158189
     22 C                     0.229679
     23 C                    -0.290336
     24 H                     0.282620
     25 C                    -0.234860
     26 H                     0.234520
     27 C                    -0.298971
     28 H                     0.218724
     29 C                     0.234196
     30 C                     0.054960
     31 C                    -0.521144
     32 H                     0.248416
     33 H                     0.251749
     34 C                    -0.227858
     35 C                    -0.665952
     36 H                     0.228281
     37 H                     0.227968
     38 H                     0.238551
     39 C                    -0.541542
     40 H                     0.252181
     41 H                     0.257853
     42 C                     0.103600
     43 C                    -0.319009
     44 H                     0.246582
     45 C                     0.079307
     46 C                     0.092491
     47 C                    -0.299562
     48 H                     0.281648
     49 C                     0.215371
     50 C                    -0.007192
     51 N                    -0.153613
     52 C                    -0.009098
     53 N                    -0.154522
     54 C                    -0.437055
     55 C                     0.053676
     56 C                    -0.262684
     57 H                     0.223386
     58 C                    -0.230950
     59 H                     0.229194
     60 C                    -0.210427
     61 H                     0.230654
     62 C                    -0.327162
     63 H                     0.215588
     64 C                     0.158251
     65 C                     0.145889
     66 C                    -0.321201
     67 H                     0.214280
     68 C                    -0.213215
     69 H                     0.229447
     70 C                    -0.229077
     71 H                     0.227777
     72 C                    -0.271627
     73 H                     0.218496
     74 C                     0.141371
     75 C                    -0.597099
     76 H                     0.232299
     77 H                     0.221268
     78 H                     0.220100
  ----------------------------------------
  Sum of atomic charges =    -0.000000

                    Cartesian Multipole Moments
 -----------------------------------------------------------------
    Charge (ESU x 10^10)
                -0.0000
    Dipole Moment (Debye)
         X      -6.1970      Y       3.7298      Z       2.0341
       Tot       7.5135
    Quadrupole Moments (Debye-Ang)
        XX    -357.9991     XY      50.2463     YY    -273.5747
        XZ      46.2282     YZ     -21.2665     ZZ    -272.8327

 Total job time:  5543.88s(wall), 25451.90s(cpu)
        *  Thank you very much for using Q-Chem.  Have a nice day.  *
