 Q-Chem 5.0, Q-Chem, Inc., Pleasanton, CA (2017)
 Q-Chem 5.0.1 for Intel X86 EM64T Linux

User input:
--------------------------------------------------------------
$rem
threads 8
jobtype	opt
method PBEh-3c
basis def2-mSVP
mem_static	512
mem_total	6096
sym_ignore	true
$end

$molecule
read incoords_b.mol
$end

--------------------------------------------------------------

   15   -1855.5289702110      7.72E-09 Convergence criterion met
 Total energy in the final basis set = -1855.52897021
   12   -1855.5296568399      8.30E-09 Convergence criterion met
 Total energy in the final basis set = -1855.52965684
   12   -1855.5298078581      9.31E-09 Convergence criterion met
 Total energy in the final basis set = -1855.52980786
   12   -1855.5300055356      6.53E-09 Convergence criterion met
 Total energy in the final basis set = -1855.53000554
   12   -1855.5300655522      8.98E-09 Convergence criterion met
 Total energy in the final basis set = -1855.53006555
   12   -1855.5301247724      8.33E-09 Convergence criterion met
 Total energy in the final basis set = -1855.53012477
   12   -1855.5301786601      8.75E-09 Convergence criterion met
 Total energy in the final basis set = -1855.53017866
   11   -1855.5303202731      6.72E-09 Convergence criterion met
   11   -1855.5303798712      7.06E-09 Convergence criterion met
 Total energy in the final basis set = -1855.53037987
   10   -1855.5303824872      3.91E-09 Convergence criterion met
 Total energy in the final basis set = -1855.53038249
   10   -1855.5303728497      8.38E-09 Convergence criterion met
 Total energy in the final basis set = -1855.53037285
   10   -1855.5303776361      4.10E-09 Convergence criterion met
 Total energy in the final basis set = -1855.53037764
   10   -1855.5303864072      4.86E-09 Convergence criterion met
 Total energy in the final basis set = -1855.53038641
   10   -1855.5303946825      2.86E-09 Convergence criterion met
 Total energy in the final basis set = -1855.53039468

             Standard Nuclear Orientation (Angstroms)
    I     Atom           X                Y                Z
 ----------------------------------------------------------------
    1      C      -1.6809290385    -1.2616930578     0.5978538546
    2      C      -2.9089606984    -1.6211287095     0.0320443617
    3      C      -3.1192606060    -2.9466158040    -0.2948179800
    4      C      -2.1621303615    -3.9351881384    -0.0686423819
    5      C      -0.6123842125    -4.6984140652     3.4266246616
    6      C      -0.9457618341    -3.5868159189     0.5225421583
    7      C       0.1898149074    -4.5246991374     0.9559380421
    8      C       0.2409180247    -6.0079480813     0.5624233849
    9      C      -0.3221306050    -6.5707176563    -0.5850994586
   10      C       0.0019433876    -7.8824458416    -0.9313725360
   11      C       0.8620637026    -8.6508310685    -0.1768434147
   12      C       1.3902999587    -8.1094468329     0.9861502555
   13      C       1.0770804913    -6.8133308617     1.3406000916
   14      N       2.2671873930    -8.8610722958     1.8091971008
   15      C       1.7416213933    -9.8994956576     2.5837626005
   16      C       0.3913341434   -10.2452116789     2.5199358683
   17      C      -0.0894006061   -11.3263018698     3.2378808873
   18      C       0.7655451497   -12.0805288375     4.0208650925
   19      C       2.0974547861   -11.7077500997     4.1146806726
   20      C       2.6008763814   -10.6092238831     3.4324553068
   21      C       3.6278935285    -8.8760360353     1.4802770528
   22      C       4.0981919676    -8.2407834913     0.3315796399
   23      C       5.4371743211    -8.3168965863    -0.0080465154
   24      C       6.3178250212    -9.0347742684     0.7813119801
   25      C       5.8491962111    -9.6419150957     1.9363036984
   26      C       4.5185438685    -9.5554312323     2.3198605005
   27      C       3.9969066394   -10.0627624932     3.6492588307
   28      C       0.3209567016    -4.3692767203     2.4666679587
   29      C       1.5607384650    -3.8322259298     2.8110191720
   30      C       2.3183322476    -3.5892700239     1.5848418934
   31      C       1.5294622814    -3.9594120047     0.4972500568
   32      C       1.8778528895    -3.6198080124     4.1433299460
   33      C       0.9415833048    -3.9508321191     5.1123834298
   34      C      -0.2928326903    -4.4858180863     4.7604944426
   35      C       3.5907121226    -3.0800158408     1.3750138894
   36      C       4.0523971174    -2.9498266331     0.0732685683
   37      C       3.2579251527    -3.3198233920    -1.0063428559
   38      C       1.9850271521    -3.8327276013    -0.7990596359
   39      C      -0.7333113993    -2.2405158169     0.8304524724
   40      C      -2.4780442043    -5.3133846171    -0.5675257685
   41      C      -1.3444153671    -5.8675542355    -1.4267722208
   42      C      -3.9290805777    -0.6592844052    -0.2250418144
   43      N      -4.7712202535     0.0942028431    -0.4434071580
   44      C      -1.3989782367     0.0936915197     0.9381664674
   45      N      -1.1603253064     1.1844632841     1.2163883208
   46      C       4.9277056723   -11.0907303848     4.2834032444
   47      C       3.8813048090    -8.8581012472     4.6054883161
   48      H       1.3676185914    -4.1291804853    -1.6384676927
   49      H       3.6353447604    -3.2077938714    -2.0140350651
   50      H       5.0433212222    -2.5544678468    -0.1051117467
   51      H       4.2183295156    -2.7874892587     2.2068617291
   52      H      -1.5720968942    -5.1172870779     3.1482370095
   53      H      -1.0084156729    -4.7376382216     5.5315606585
   54      H       1.1736823634    -3.7899090232     6.1565234298
   55      H       2.8354723954    -3.2036019448     4.4281542643
   56      H      -4.0592267051    -3.2254093631    -0.7533415790
   57      H       0.2033887109    -1.9367149466     1.2759301624
   58      H      -1.1387720364   -11.5819439017     3.1683939232
   59      H       0.4010309730   -12.9388852884     4.5687464802
   60      H      -0.2931828240    -9.6811363830     1.9030799096
   61      H       2.7509625420   -12.2862276392     4.7523864500
   62      H       6.5497136001   -10.1829094664     2.5570291680
   63      H       3.4233270502    -7.6892836529    -0.3074570598
   64      H       7.3624650344    -9.1128194622     0.5124928076
   65      H       5.7830921568    -7.8191869358    -0.9044967502
   66      H       1.5260549393    -6.4295251944     2.2452657226
   67      H       1.1064780052    -9.6638565942    -0.4704829356
   68      H      -0.4437967531    -8.3090020307    -1.8221526923
   69      H      -1.7490017621    -6.5787550726    -2.1482747387
   70      H      -0.9043185829    -5.0599680354    -2.0195185393
   71      H      -2.6816162802    -6.0008631735     0.2584910621
   72      H      -3.3974293108    -5.2673127560    -1.1534562072
   73      H       3.2211666194    -8.0876633793     4.2071340100
   74      H       4.8612858813    -8.4070169558     4.7703483952
   75      H       3.4784291791    -9.1759642046     5.5686944310
   76      H       5.0491120071   -11.9750393983     3.6564395781
   77      H       4.5532222854   -11.4089763078     5.2558716363
   78      H       5.9125987940   -10.6629620067     4.4680077001
 ----------------------------------------------------------------

    8   -1855.5304006785      9.65E-09 Convergence criterion met
 Total energy in the final basis set = -1855.53040068
 Final energy is   -1855.53040067853
 **  OPTIMIZATION CONVERGED  **

                    Orbital Energies (a.u.)
 --------------------------------------------------------------

 Alpha MOs
 -- Occupied --
-14.681 -14.656 -14.654 -10.521 -10.519 -10.510 -10.507 -10.500
-10.500 -10.498 -10.497 -10.492 -10.492 -10.491 -10.491 -10.488
-10.480 -10.476 -10.476 -10.474 -10.474 -10.473 -10.470 -10.469
-10.467 -10.466 -10.466 -10.466 -10.466 -10.465 -10.464 -10.464
-10.464 -10.463 -10.463 -10.452 -10.451 -10.445 -10.444 -10.444
-10.443 -10.442 -10.441 -10.438 -10.437 -10.431 -10.425  -1.093
 -1.042  -1.030  -1.019  -1.003  -0.988  -0.968  -0.962  -0.959
 -0.938  -0.933  -0.912  -0.898  -0.891  -0.885  -0.858  -0.856
 -0.850  -0.846  -0.835  -0.826  -0.819  -0.808  -0.795  -0.773
 -0.772  -0.747  -0.731  -0.726  -0.714  -0.710  -0.704  -0.692
 -0.681  -0.678  -0.673  -0.672  -0.666  -0.646  -0.619  -0.614
 -0.613  -0.611  -0.596  -0.585  -0.581  -0.574  -0.567  -0.561
 -0.541  -0.540  -0.537  -0.533  -0.530  -0.525  -0.522  -0.521
 -0.516  -0.511  -0.505  -0.504  -0.502  -0.501  -0.499  -0.494
 -0.492  -0.490  -0.487  -0.485  -0.476  -0.469  -0.460  -0.452
 -0.449  -0.444  -0.441  -0.438  -0.437  -0.436  -0.434  -0.430
 -0.429  -0.425  -0.424  -0.421  -0.419  -0.417  -0.416  -0.413
 -0.412  -0.404  -0.400  -0.399  -0.397  -0.395  -0.393  -0.378
 -0.374  -0.366  -0.349  -0.339  -0.321  -0.313  -0.309  -0.303
 -0.298  -0.292  -0.288  -0.282  -0.271  -0.231

          Ground-State Mulliken Net Atomic Charges

     Atom                 Charge (a.u.)
  ----------------------------------------
      1 C                     0.080320
      2 C                     0.078276
      3 C                    -0.319990
      4 C                     0.080797
      5 C                    -0.259942
      6 C                     0.244539
      7 C                    -0.440928
      8 C                     0.199112
      9 C                     0.084541
     10 C                    -0.299956
     11 C                    -0.229547
     12 C                     0.196905
     13 C                    -0.282102
     14 N                    -0.695961
     15 C                     0.320951
     16 C                    -0.298198
     17 C                    -0.232736
     18 C                    -0.220472
     19 C                    -0.322508
     20 C                     0.159490
     21 C                     0.313800
     22 C                    -0.286971
     23 C                    -0.234655
     24 C                    -0.219351
     25 C                    -0.324955
     26 C                     0.168577
     27 C                    -0.234408
     28 C                     0.078662
     29 C                     0.153355
     30 C                     0.147594
     31 C                     0.129012
     32 C                    -0.328358
     33 C                    -0.213311
     34 C                    -0.229089
     35 C                    -0.324605
     36 C                    -0.213056
     37 C                    -0.227167
     38 C                    -0.266321
     39 C                    -0.277719
     40 C                    -0.525519
     41 C                    -0.533719
     42 C                    -0.006796
     43 N                    -0.154546
     44 C                    -0.009696
     45 N                    -0.154978
     46 C                    -0.665076
     47 C                    -0.594519
     48 H                     0.218680
     49 H                     0.227496
     50 H                     0.228807
     51 H                     0.213445
     52 H                     0.220004
     53 H                     0.229739
     54 H                     0.229773
     55 H                     0.214843
     56 H                     0.247140
     57 H                     0.280734
     58 H                     0.214844
     59 H                     0.212579
     60 H                     0.244294
     61 H                     0.213809
     62 H                     0.212736
     63 H                     0.247260
     64 H                     0.211940
     65 H                     0.215415
     66 H                     0.260160
     67 H                     0.249578
     68 H                     0.219394
     69 H                     0.250687
     70 H                     0.248679
     71 H                     0.258828
     72 H                     0.249086
     73 H                     0.237915
     74 H                     0.219049
     75 H                     0.219850
     76 H                     0.238863
     77 H                     0.227755
     78 H                     0.227846
  ----------------------------------------
  Sum of atomic charges =     0.000000

                    Cartesian Multipole Moments
 -----------------------------------------------------------------
    Charge (ESU x 10^10)
                 0.0000
    Dipole Moment (Debye)
         X       2.7270      Y      -6.7549      Z      -0.2992
       Tot       7.2908
    Quadrupole Moments (Debye-Ang)
        XX    -264.9783     XY      20.7600     YY    -260.3409
        XZ       5.6888     YZ      -3.2979     ZZ    -249.0175

 Total job time:  10479.54s(wall), 41918.42s(cpu)
        *  Thank you very much for using Q-Chem.  Have a nice day.  *
