 Q-Chem 5.0, Q-Chem, Inc., Pleasanton, CA (2017)
 Q-Chem 5.0.1 for Intel X86 EM64T Linux

User input:
--------------------------------------------------------------
$rem
threads 8
jobtype	sp
method PBEh-3c
basis def2-mSVP
mem_static	1024
mem_total	14000
sym_ignore	true
cis_n_roots             6
cis_singlets            true
cis_triplets		true
rpa                     false
calc_soc 		true
cis_moments             true
cis_relaxed_density	true
$end

$molecule
read gsopt.mol
$end

--------------------------------------------------------------

             Standard Nuclear Orientation (Angstroms)
    I     Atom           X                Y                Z
 ----------------------------------------------------------------
    1      N       0.0000000000     0.0000000000     0.0000000000
    2      C       0.0000000000     0.0000000000     1.3975410000
    3      C       1.1925986811     0.0000000000     2.1195799892
    4      H       2.1436613555     0.0189633221     1.6057484965
    5      C       1.1668550877    -0.0373205186     3.5028671926
    6      H       2.1003288451    -0.0369795954     4.0503920487
    7      C      -0.0402718020    -0.0923846891     4.1772995222
    8      H      -0.0659340602    -0.1353364320     5.2577796744
    9      C      -1.2231959117    -0.0752585423     3.4537431485
   10      H      -2.1604594632    -0.0952350664     3.9925722964
   11      C      -1.2283373669    -0.0045800943     2.0680810511
   12      C      -1.0805523348    -0.5751844747    -0.6824644363
   13      C      -0.9451573462    -1.1126792012    -1.9615999367
   14      H      -0.0023229905    -1.0689986996    -2.4875821147
   15      C      -2.0218473008    -1.7275906065    -2.5759743795
   16      H      -1.8903284847    -2.1461389719    -3.5652685116
   17      C      -3.2393948154    -1.8218717567    -1.9256988913
   18      H      -4.0793696045    -2.3167591543    -2.3942301065
   19      C      -3.3796359024    -1.2520535841    -0.6694933186
   20      H      -4.3435421283    -1.3023989197    -0.1823407490
   21      C      -2.3272925226    -0.6001513847    -0.0424854018
   22      C       1.2127450291     0.2633158382    -0.6815819697
   23      C       2.0369016728    -0.7686786114    -1.0771280203
   24      H       1.7255895534    -1.7746470801    -0.8284939671
   25      C       1.5808144763     1.5704212042    -0.9620359904
   26      H       0.9490956131     2.3931037128    -0.6537867957
   27      C       2.7722958797     1.7943743135    -1.6163300940
   28      H       3.0846291757     2.8145364539    -1.8045454239
   29      C       3.2073442936    -0.5641030094    -1.8124924141
   30      C       3.5979044432     0.7543556375    -2.0547318227
   31      C       4.8997337133     1.1486683992    -2.6910304197
   32      H       5.0966149873     2.1931838764    -2.4435864188
   33      H       4.8461385070     1.1072911262    -3.7830843954
   34      C      -2.4818638184     0.1958594718     1.2409470257
   35      C      -3.7459725727    -0.1724422084     2.0098699365
   36      H      -4.6362329295     0.0075383806     1.4078423045
   37      H      -3.8542851979     0.4489310320     2.8988143958
   38      H      -3.7464440283    -1.2177036398     2.3208384994
   39      C       6.0626497738     0.2899194714    -2.2040375920
   40      H       6.9957887144     0.8483954233    -2.2888575422
   41      H       5.9355899839     0.0717837672    -1.1404693525
   42      C       6.1720981015    -0.9603797414    -3.0222246841
   43      C       7.3525428323    -1.1540633725    -3.7325039165
   44      H       8.1576331710    -0.4400797418    -3.6168956364
   45      C       7.5318888877    -2.2235495797    -4.5916303298
   46      C       6.4828071296    -3.1312736834    -4.7493843388
   47      C       5.3066797228    -2.9428607371    -4.0420338607
   48      H       4.5175374964    -3.6669691113    -4.1821196507
   49      C       5.1188842239    -1.8701089456    -3.1705146373
   50      C       8.7621400474    -2.3669151596    -5.2972114022
   51      N       9.7656621658    -2.4560559547    -5.8535812167
   52      C       6.6049483584    -4.2458736581    -5.6300706799
   53      N       6.6917280254    -5.1478411849    -6.3393895941
   54      C       3.8183584891    -1.8715245561    -2.3561353367
   55      C       2.6959211485    -2.5455787879    -3.1460039096
   56      C       2.0637449193    -2.0649063537    -4.2747651451
   57      H       2.3575485774    -1.1210253500    -4.7180261129
   58      C       1.0340433483    -2.8149236042    -4.8286116365
   59      H       0.5273796186    -2.4579059733    -5.7154808288
   60      C       0.6479757944    -4.0190873264    -4.2497580220
   61      H      -0.1597630807    -4.5882797501    -4.6899679214
   62      C       1.2836335619    -4.4969403027    -3.1132390226
   63      H       0.9704542653    -5.4308110201    -2.6648773953
   64      C       2.3162237853    -3.7522461282    -2.5633581500
   65      C       3.1478592949    -3.9765435666    -1.3841042894
   66      C       3.1731229162    -5.0207820200    -0.4732351191
   67      H       2.5044450059    -5.8654962243    -0.5775146947
   68      C       4.0727720788    -4.9662771580     0.5810308637
   69      H       4.1049327346    -5.7740052855     1.2997471613
   70      C       4.9330572741    -3.8840296952     0.7258871341
   71      H       5.6270234552    -3.8571589317     1.5552858641
   72      C       4.9075274111    -2.8369753083    -0.1857120801
   73      H       5.5797341094    -1.9957563645    -0.0699090853
   74      C       4.0127076455    -2.8935903869    -1.2340122467
   75      C      -2.5688127969     1.6923955075     0.8710751868
   76      H      -1.6923910097     2.0244682951     0.3156016423
   77      H      -3.4477880814     1.8829396341     0.2528649782
   78      H      -2.6420084394     2.3014142574     1.7738870905
 ----------------------------------------------------------------

   15   -1855.5319838414      7.51E-09 Convergence criterion met
 Total energy in the final basis set = -1855.53198384

         TDDFT/TDA Excitation Energies
 ---------------------------------------------------

 Excited state   1: excitation energy (eV) =    3.3725
 Total energy for state  1:                 -1855.40804699 au
    Multiplicity: Triplet
    Trans. Mom.:  0.0000 X   0.0000 Y   0.0000 Z
    Strength   :     0.0000000000
    D(151) --> V(  1) amplitude =  0.2249
    D(157) --> V(  2) amplitude = -0.5774
    D(157) --> V(  3) amplitude =  0.5239

 Excited state   2: excitation energy (eV) =    3.4642
 Total energy for state  2:                 -1855.40467804 au
    Multiplicity: Triplet
    Trans. Mom.:  0.0000 X   0.0000 Y   0.0000 Z
    Strength   :     0.0000000000
    D(148) --> V(  1) amplitude = -0.2698
    D(149) --> V(  1) amplitude = -0.2764
    D(149) --> V(  2) amplitude = -0.2374
    D(150) --> V(  1) amplitude =  0.4401
    D(151) --> V(  1) amplitude =  0.5182
    D(157) --> V(  3) amplitude = -0.2573

 Excited state   3: excitation energy (eV) =    3.7603
 Total energy for state  3:                 -1855.39379375 au
    Multiplicity: Triplet
    Trans. Mom.:  0.0000 X   0.0000 Y   0.0000 Z
    Strength   :     0.0000000000
    D(155) --> V( 10) amplitude =  0.2377
    D(158) --> V(  8) amplitude =  0.2933
    D(158) --> V(  9) amplitude = -0.7003

 Excited state   4: excitation energy (eV) =    3.8352
 Total energy for state  4:                 -1855.39104201 au
    Multiplicity: Triplet
    Trans. Mom.:  0.0000 X   0.0000 Y   0.0000 Z
    Strength   :     0.0000000000
    D(158) --> V(  1) amplitude =  0.9570

 Excited state   5: excitation energy (eV) =    3.8389
 Total energy for state  5:                 -1855.39090640 au
    Multiplicity: Singlet
    Trans. Mom.: -0.1126 X   0.0394 Y   0.0843 Z
    Strength   :     0.0020083174
    D(158) --> V(  1) amplitude =  0.9944

 Excited state   6: excitation energy (eV) =    3.8831
 Total energy for state  6:                 -1855.38928154 au
    Multiplicity: Triplet
    Trans. Mom.:  0.0000 X   0.0000 Y   0.0000 Z
    Strength   :     0.0000000000
    D(152) --> V(  6) amplitude = -0.4203
    D(153) --> V(  5) amplitude = -0.2818
    D(154) --> V(  5) amplitude = -0.2787
    D(157) --> V(  5) amplitude =  0.2912
    D(158) --> V(  1) amplitude =  0.2208

 Excited state   7: excitation energy (eV) =    4.0280
 Total energy for state  7:                 -1855.38395791 au
    Multiplicity: Triplet
    Trans. Mom.:  0.0000 X   0.0000 Y   0.0000 Z
    Strength   :     0.0000000000
    D(154) --> V(  9) amplitude =  0.2954
    D(155) --> V(  7) amplitude = -0.3169
    D(155) --> V(  8) amplitude =  0.2181
    D(156) --> V(  9) amplitude =  0.2189
    D(156) --> V( 10) amplitude = -0.2939
    D(158) --> V( 11) amplitude = -0.5485

 Excited state   8: excitation energy (eV) =    4.2114
 Total energy for state  8:                 -1855.37721835 au
    Multiplicity: Singlet
    Trans. Mom.:  0.0462 X  -0.0662 Y  -0.0887 Z
    Strength   :     0.0014835043
    D(158) --> V(  2) amplitude =  0.9324
    D(158) --> V(  3) amplitude = -0.2472
    D(158) --> V(  5) amplitude = -0.2153

 Excited state   9: excitation energy (eV) =    4.3933
 Total energy for state  9:                 -1855.37053340 au
    Multiplicity: Singlet
    Trans. Mom.:  0.2059 X  -0.0334 Y  -0.2359 Z
    Strength   :     0.0106734859
    D(158) --> V(  3) amplitude =  0.5247
    D(158) --> V(  4) amplitude =  0.3926
    D(158) --> V(  5) amplitude = -0.2255
    D(158) --> V(  6) amplitude = -0.6659

 Excited state  10: excitation energy (eV) =    4.4186
 Total energy for state 10:                 -1855.36960508 au
    Multiplicity: Singlet
    Trans. Mom.: -0.6097 X  -0.1348 Y   0.3507 Z
    Strength   :     0.0555189101
    D(157) --> V(  1) amplitude =  0.9549

 Excited state  11: excitation energy (eV) =    4.4296
 Total energy for state 11:                 -1855.36919946 au
    Multiplicity: Singlet
    Trans. Mom.:  0.1173 X   0.1206 Y  -0.0141 Z
    Strength   :     0.0030930724
    D(158) --> V(  3) amplitude = -0.2944
    D(158) --> V(  4) amplitude =  0.6251
    D(158) --> V(  5) amplitude =  0.6656

 Excited state  12: excitation energy (eV) =    4.7256
 Total energy for state 12:                 -1855.35832052 au
    Multiplicity: Singlet
    Trans. Mom.:  0.0615 X   0.0060 Y   0.2108 Z
    Strength   :     0.0055847719
    D(158) --> V(  2) amplitude =  0.3291
    D(158) --> V(  3) amplitude =  0.7357
    D(158) --> V(  5) amplitude =  0.3051
    D(158) --> V(  6) amplitude =  0.4602

 ---------------------------------------------------

                    Orbital Energies (a.u.)
 --------------------------------------------------------------

 Alpha MOs
 -- Occupied --
-14.679 -14.657 -14.655 -10.522 -10.521 -10.512 -10.507 -10.501
-10.501 -10.498 -10.497 -10.493 -10.491 -10.490 -10.490 -10.488
-10.481 -10.477 -10.477 -10.475 -10.474 -10.474 -10.469 -10.469
-10.468 -10.468 -10.467 -10.467 -10.467 -10.466 -10.465 -10.464
-10.464 -10.463 -10.462 -10.451 -10.451 -10.444 -10.444 -10.443
-10.442 -10.441 -10.439 -10.437 -10.436 -10.430 -10.426  -1.091
 -1.042  -1.030  -1.020  -1.004  -0.988  -0.970  -0.961  -0.957
 -0.939  -0.934  -0.911  -0.899  -0.890  -0.885  -0.858  -0.857
 -0.848  -0.846  -0.834  -0.826  -0.819  -0.808  -0.795  -0.773
 -0.772  -0.748  -0.732  -0.725  -0.714  -0.711  -0.702  -0.691
 -0.682  -0.679  -0.673  -0.671  -0.667  -0.645  -0.619  -0.613
 -0.612  -0.611  -0.599  -0.584  -0.582  -0.573  -0.566  -0.562
 -0.540  -0.539  -0.537  -0.533  -0.530  -0.527  -0.524  -0.520
 -0.517  -0.510  -0.508  -0.503  -0.503  -0.501  -0.498  -0.494
 -0.491  -0.490  -0.487  -0.485  -0.474  -0.469  -0.461  -0.451
 -0.448  -0.444  -0.440  -0.439  -0.437  -0.436  -0.435  -0.431
 -0.428  -0.425  -0.425  -0.421  -0.420  -0.417  -0.415  -0.414
 -0.412  -0.403  -0.402  -0.399  -0.397  -0.396  -0.393  -0.379
 -0.374  -0.363  -0.350  -0.339  -0.322  -0.314  -0.306  -0.304
 -0.299  -0.291  -0.287  -0.280  -0.271  -0.230

          Ground-State Mulliken Net Atomic Charges

     Atom                 Charge (a.u.)
  ----------------------------------------
      1 N                    -0.711047
      2 C                     0.313352
      3 C                    -0.284570
      4 H                     0.241099
      5 C                    -0.235367
      6 H                     0.214431
      7 C                    -0.218367
      8 H                     0.212081
      9 C                    -0.326555
     10 H                     0.213298
     11 C                     0.169767
     12 C                     0.314008
     13 C                    -0.295531
     14 H                     0.265487
     15 C                    -0.233511
     16 H                     0.211877
     17 C                    -0.218904
     18 H                     0.210312
     19 C                    -0.326032
     20 H                     0.212594
     21 C                     0.160996
     22 C                     0.221917
     23 C                    -0.288448
     24 H                     0.282993
     25 C                    -0.233945
     26 H                     0.234043
     27 C                    -0.297733
     28 H                     0.219482
     29 C                     0.227484
     30 C                     0.058568
     31 C                    -0.515308
     32 H                     0.247691
     33 H                     0.252540
     34 C                    -0.230289
     35 C                    -0.664846
     36 H                     0.228163
     37 H                     0.227410
     38 H                     0.238609
     39 C                    -0.543568
     40 H                     0.251952
     41 H                     0.256219
     42 C                     0.103184
     43 C                    -0.320173
     44 H                     0.246232
     45 C                     0.079721
     46 C                     0.091051
     47 C                    -0.294510
     48 H                     0.280706
     49 C                     0.213632
     50 C                    -0.006894
     51 N                    -0.153602
     52 C                    -0.009027
     53 N                    -0.154281
     54 C                    -0.437827
     55 C                     0.036906
     56 C                    -0.256670
     57 H                     0.228387
     58 C                    -0.240843
     59 H                     0.231302
     60 C                    -0.210189
     61 H                     0.230892
     62 C                    -0.324994
     63 H                     0.215656
     64 C                     0.163697
     65 C                     0.140350
     66 C                    -0.321692
     67 H                     0.214412
     68 C                    -0.214658
     69 H                     0.229721
     70 C                    -0.222896
     71 H                     0.227879
     72 C                    -0.277440
     73 H                     0.216001
     74 C                     0.155952
     75 C                    -0.595243
     76 H                     0.231869
     77 H                     0.221222
     78 H                     0.219812
  ----------------------------------------
  Sum of atomic charges =    -0.000000

                    Cartesian Multipole Moments
 -----------------------------------------------------------------
    Charge (ESU x 10^10)
                -0.0000
    Dipole Moment (Debye)
         X      -4.1879      Y       3.8930      Z       4.7628
       Tot       7.4416
    Quadrupole Moments (Debye-Ang)
        XX    -318.9496     XY      46.3950     YY    -278.4375
        XZ      60.4257     YZ     -35.0912     ZZ    -305.3682

 Total job time:  6308.64s(wall), 34348.37s(cpu)
        *  Thank you very much for using Q-Chem.  Have a nice day.  *
