 Q-Chem 5.0, Q-Chem, Inc., Pleasanton, CA (2017)
 Q-Chem 5.0.1 for Intel X86 EM64T Linux

User input:
--------------------------------------------------------------
$rem
threads 8
jobtype	sp
method PBEh-3c
basis def2-mSVP
mem_static	1024
mem_total	14000
sym_ignore	true
cis_n_roots             6
cis_singlets            true
cis_triplets		true
rpa                     false
calc_soc 		true
cis_moments             true
cis_relaxed_density	true
$end

$molecule
read gsopt_b.mol
$end

--------------------------------------------------------------

             Standard Nuclear Orientation (Angstroms)
    I     Atom           X                Y                Z
 ----------------------------------------------------------------
    1      N       0.0000000000     0.0000000000     0.0000000000
    2      C       0.0000000000     0.0000000000     1.3980320000
    3      C       1.1896912902     0.0000000000     2.1270759602
    4      H       2.1442799608    -0.0509210191     1.6236645612
    5      C       1.1643752849     0.0782430734     3.5085764677
    6      H       2.0989023553     0.0843775879     4.0544555655
    7      C      -0.0409975989     0.1648981334     4.1811997465
    8      H      -0.0679280789     0.2467227171     5.2593458913
    9      C      -1.2213999460     0.1216375745     3.4555785585
   10      H      -2.1585049234     0.1603778557     3.9928966106
   11      C      -1.2277810064     0.0104241440     2.0723880045
   12      C      -1.1040618073     0.5243701724    -0.6826538278
   13      C      -0.9733237376     1.0494642825    -1.9677278241
   14      H      -0.0208155505     1.0249195329    -2.4777159725
   15      C      -2.0635890618     1.6170134750    -2.6027267062
   16      H      -1.9421458597     2.0212922435    -3.5991236682
   17      C      -3.2887388819     1.6805632943    -1.9632345023
   18      H      -4.1408931484     2.1382894358    -2.4469151764
   19      C      -3.4188354058     1.1329413307    -0.6961815689
   20      H      -4.3856210125     1.1692570986    -0.2137853336
   21      C      -2.3516710612     0.5280985237    -0.0476782025
   22      C       1.2405452291    -0.0599757768    -0.6846388356
   23      C       1.5978464481    -1.2241577604    -1.3332325299
   24      H       0.8991789263    -2.0469131188    -1.2858771731
   25      C       2.0865457400     1.0386886351    -0.7282756811
   26      H       1.8141694328     1.9607032925    -0.2303970722
   27      C       3.2877422599     0.9209252817    -1.3937048218
   28      H       3.9709887034     1.7618860375    -1.4028289343
   29      C       3.6606469044    -0.2495688436    -2.0543444563
   30      C       2.7927566926    -1.3437677670    -2.0482506719
   31      C       5.0320681167    -0.2936281823    -2.6586466280
   32      H       5.5646850819     0.6161164714    -2.3780283043
   33      H       4.9999088168    -0.2944004065    -3.7523536525
   34      C      -2.4859586411    -0.2229259962     1.2617944720
   35      C      -3.7464832381     0.1658399943     2.0267667008
   36      H      -4.6396138066    -0.0494278443     1.4410555739
   37      H      -3.8424371313    -0.4164298759     2.9427184213
   38      H      -3.7553484685     1.2242044543     2.2906058244
   39      C       5.8109481408    -1.5114865049    -2.1680451197
   40      H       6.8805911807    -1.2960904745    -2.1812680224
   41      H       5.5571961948    -1.7123315524    -1.1232277166
   42      C       5.5558465117    -2.7085620646    -3.0340957303
   43      C       6.6733079554    -3.3764161827    -3.5338763283
   44      H       7.6580100506    -3.0478078264    -3.2274719122
   45      C       6.5727044370    -4.4342676241    -4.4163788281
   46      C       4.2803985369    -3.1241581340    -3.4225909231
   47      C       4.1887263390    -4.1811778944    -4.3318611176
   48      H       3.2162233588    -4.5170989652    -4.6628405812
   49      C       5.2985030488    -4.8360806317    -4.8315346024
   50      C       7.7549011951    -5.0747444229    -4.8897521902
   51      N       8.7265789287    -5.5726639379    -5.2538189317
   52      C       5.1327152216    -5.9088138513    -5.7557278252
   53      N       4.9869574178    -6.7729481063    -6.5014970007
   54      C       2.9283815545    -2.6054182113    -2.9127364983
   55      C       2.2413603626    -3.7885186289    -2.2404765413
   56      C       2.6540857813    -4.4667854351    -1.1132740347
   57      H       3.5627736195    -4.1834152646    -0.5955961934
   58      C       1.8755705528    -5.5193699079    -0.6522979152
   59      H       2.1782984907    -6.0654714112     0.2309604969
   60      C       0.7085928085    -5.8768582367    -1.3187688155
   61      H       0.1145961817    -6.7008686291    -0.9470569295
   62      C       0.2971051431    -5.1925525444    -2.4535136752
   63      H      -0.6126591916    -5.4793356436    -2.9648577391
   64      C       1.0728321419    -4.1407380531    -2.9146745364
   65      C       0.9095758180    -3.2464858729    -4.0592916645
   66      C      -0.0751318809    -3.1674621178    -5.0321351593
   67      H      -0.9217963786    -3.8416635265    -5.0244816341
   68      C       0.0404479284    -2.2040063986    -6.0236175313
   69      H      -0.7207591050    -2.1306713236    -6.7886309726
   70      C       1.1227137553    -1.3312315144    -6.0482729450
   71      H       1.1959212180    -0.5886903617    -6.8316718454
   72      C       2.1082895930    -1.4061230944    -5.0739337890
   73      H       2.9480451721    -0.7217754393    -5.0866974460
   74      C       1.9898872797    -2.3666358580    -4.0903666976
   75      C      -2.5590768020    -1.7296480046     0.9402498758
   76      H      -1.6784857060    -2.0699377363     0.3954512518
   77      H      -3.4361632924    -1.9465459357     0.3281279875
   78      H      -2.6256419381    -2.3110725991     1.8614594126
 ----------------------------------------------------------------

   15   -1855.5301941074      7.56E-09 Convergence criterion met
 Total energy in the final basis set = -1855.53019411

         TDDFT/TDA Excitation Energies
 ---------------------------------------------------

 Excited state   1: excitation energy (eV) =    3.3893
 Total energy for state  1:                 -1855.40564112 au
    Multiplicity: Triplet
    Trans. Mom.:  0.0000 X   0.0000 Y   0.0000 Z
    Strength   :     0.0000000000
    D(157) --> V(  2) amplitude = -0.5107
    D(157) --> V(  3) amplitude =  0.6288

 Excited state   2: excitation energy (eV) =    3.4682
 Total energy for state  2:                 -1855.40274055 au
    Multiplicity: Triplet
    Trans. Mom.:  0.0000 X   0.0000 Y   0.0000 Z
    Strength   :     0.0000000000
    D(148) --> V(  1) amplitude =  0.2911
    D(149) --> V(  1) amplitude =  0.2775
    D(149) --> V(  2) amplitude =  0.2465
    D(150) --> V(  1) amplitude =  0.4744
    D(151) --> V(  1) amplitude = -0.2300
    D(152) --> V(  1) amplitude =  0.4323
    D(157) --> V(  1) amplitude =  0.2646
    D(157) --> V(  3) amplitude = -0.2189

 Excited state   3: excitation energy (eV) =    3.7538
 Total energy for state  3:                 -1855.39224478 au
    Multiplicity: Triplet
    Trans. Mom.:  0.0000 X   0.0000 Y   0.0000 Z
    Strength   :     0.0000000000
    D(155) --> V( 10) amplitude = -0.2446
    D(156) --> V(  7) amplitude = -0.2470
    D(158) --> V(  8) amplitude =  0.7882

 Excited state   4: excitation energy (eV) =    3.8840
 Total energy for state  4:                 -1855.38745865 au
    Multiplicity: Triplet
    Trans. Mom.:  0.0000 X   0.0000 Y   0.0000 Z
    Strength   :     0.0000000000
    D(150) --> V(  5) amplitude =  0.2135
    D(151) --> V(  6) amplitude = -0.2918
    D(152) --> V(  4) amplitude =  0.2753
    D(152) --> V(  6) amplitude = -0.2123
    D(153) --> V(  4) amplitude = -0.3181
    D(154) --> V(  4) amplitude =  0.2931
    D(154) --> V(  5) amplitude =  0.2638
    D(157) --> V(  4) amplitude = -0.2438

 Excited state   5: excitation energy (eV) =    3.9580
 Total energy for state  5:                 -1855.38473977 au
    Multiplicity: Triplet
    Trans. Mom.:  0.0000 X   0.0000 Y   0.0000 Z
    Strength   :     0.0000000000
    D(158) --> V(  1) amplitude =  0.9940

 Excited state   6: excitation energy (eV) =    3.9585
 Total energy for state  6:                 -1855.38472073 au
    Multiplicity: Singlet
    Trans. Mom.: -0.0200 X   0.0239 Y   0.0193 Z
    Strength   :     0.0001302624
    D(158) --> V(  1) amplitude =  0.9973

 Excited state   7: excitation energy (eV) =    4.0491
 Total energy for state  7:                 -1855.38139263 au
    Multiplicity: Triplet
    Trans. Mom.:  0.0000 X   0.0000 Y   0.0000 Z
    Strength   :     0.0000000000
    D(153) --> V(  8) amplitude =  0.2133
    D(154) --> V(  8) amplitude =  0.2795
    D(155) --> V(  7) amplitude = -0.3727
    D(156) --> V(  8) amplitude =  0.2395
    D(156) --> V( 10) amplitude = -0.2762
    D(158) --> V( 11) amplitude =  0.4806
    D(158) --> V( 12) amplitude = -0.2765

 Excited state   8: excitation energy (eV) =    4.2345
 Total energy for state  8:                 -1855.37458027 au
    Multiplicity: Singlet
    Trans. Mom.: -0.0985 X  -0.0226 Y  -0.0104 Z
    Strength   :     0.0010699408
    D(158) --> V(  2) amplitude =  0.6680
    D(158) --> V(  3) amplitude = -0.2805
    D(158) --> V(  4) amplitude = -0.5755
    D(158) --> V(  5) amplitude = -0.3492

 Excited state   9: excitation energy (eV) =    4.3188
 Total energy for state  9:                 -1855.37148049 au
    Multiplicity: Singlet
    Trans. Mom.:  0.1051 X  -0.0745 Y  -0.1119 Z
    Strength   :     0.0030809768
    D(158) --> V(  2) amplitude =  0.4565
    D(158) --> V(  3) amplitude = -0.3607
    D(158) --> V(  4) amplitude =  0.6703
    D(158) --> V(  6) amplitude = -0.4061

 Excited state  10: excitation energy (eV) =    4.4800
 Total energy for state 10:                 -1855.36555670 au
    Multiplicity: Singlet
    Trans. Mom.:  0.7956 X  -0.2351 Y  -0.1670 Z
    Strength   :     0.0786027834
    D(157) --> V(  1) amplitude =  0.9738

 Excited state  11: excitation energy (eV) =    4.5870
 Total energy for state 11:                 -1855.36162543 au
    Multiplicity: Singlet
    Trans. Mom.:  0.0058 X   0.0014 Y  -0.0274 Z
    Strength   :     0.0000880892
    D(158) --> V(  2) amplitude =  0.3023
    D(158) --> V(  3) amplitude =  0.8684
    D(158) --> V(  5) amplitude = -0.2721
    D(158) --> V(  6) amplitude = -0.2545

 Excited state  12: excitation energy (eV) =    4.7436
 Total energy for state 12:                 -1855.35587168 au
    Multiplicity: Singlet
    Trans. Mom.: -0.0342 X  -0.0208 Y  -0.0988 Z
    Strength   :     0.0013197126
    D(158) --> V(  2) amplitude = -0.4980
    D(158) --> V(  5) amplitude = -0.6079
    D(158) --> V(  6) amplitude = -0.5518

 ---------------------------------------------------

                    Orbital Energies (a.u.)
 --------------------------------------------------------------

 Alpha MOs
 -- Occupied --
-14.681 -14.656 -14.654 -10.521 -10.519 -10.510 -10.507 -10.500
-10.500 -10.498 -10.497 -10.492 -10.492 -10.491 -10.491 -10.488
-10.480 -10.476 -10.476 -10.474 -10.474 -10.473 -10.470 -10.469
-10.467 -10.466 -10.466 -10.466 -10.466 -10.465 -10.464 -10.464
-10.464 -10.463 -10.463 -10.452 -10.451 -10.445 -10.444 -10.444
-10.443 -10.442 -10.441 -10.438 -10.437 -10.431 -10.425  -1.093
 -1.042  -1.030  -1.019  -1.003  -0.988  -0.968  -0.962  -0.959
 -0.938  -0.933  -0.912  -0.898  -0.891  -0.885  -0.858  -0.856
 -0.850  -0.846  -0.835  -0.826  -0.819  -0.808  -0.795  -0.773
 -0.772  -0.747  -0.731  -0.726  -0.714  -0.710  -0.704  -0.692
 -0.681  -0.678  -0.673  -0.672  -0.666  -0.646  -0.619  -0.614
 -0.613  -0.611  -0.596  -0.585  -0.581  -0.574  -0.567  -0.561
 -0.541  -0.540  -0.537  -0.533  -0.530  -0.525  -0.522  -0.521
 -0.516  -0.511  -0.505  -0.504  -0.502  -0.501  -0.499  -0.494
 -0.492  -0.490  -0.487  -0.485  -0.476  -0.469  -0.460  -0.452
 -0.449  -0.444  -0.441  -0.438  -0.437  -0.436  -0.434  -0.430
 -0.428  -0.425  -0.424  -0.421  -0.419  -0.417  -0.416  -0.413
 -0.412  -0.404  -0.400  -0.399  -0.397  -0.395  -0.393  -0.378
 -0.374  -0.366  -0.349  -0.339  -0.321  -0.313  -0.309  -0.303
 -0.298  -0.292  -0.288  -0.282  -0.271  -0.231

          Ground-State Mulliken Net Atomic Charges

     Atom                 Charge (a.u.)
  ----------------------------------------
      1 N                    -0.695754
      2 C                     0.320048
      3 C                    -0.297809
      4 H                     0.244305
      5 C                    -0.232858
      6 H                     0.214884
      7 C                    -0.220332
      8 H                     0.212532
      9 C                    -0.322757
     10 H                     0.213856
     11 C                     0.160333
     12 C                     0.313875
     13 C                    -0.287013
     14 H                     0.247342
     15 C                    -0.234556
     16 H                     0.215374
     17 C                    -0.219406
     18 H                     0.211977
     19 C                    -0.324877
     20 H                     0.212745
     21 C                     0.168430
     22 C                     0.196505
     23 C                    -0.281302
     24 H                     0.259976
     25 C                    -0.229747
     26 H                     0.249593
     27 C                    -0.300023
     28 H                     0.219359
     29 C                     0.085620
     30 C                     0.197377
     31 C                    -0.534221
     32 H                     0.250742
     33 H                     0.248691
     34 C                    -0.234748
     35 C                    -0.664762
     36 H                     0.227766
     37 H                     0.227664
     38 H                     0.238807
     39 C                    -0.525772
     40 H                     0.249103
     41 H                     0.258831
     42 C                     0.080956
     43 C                    -0.320039
     44 H                     0.247179
     45 C                     0.078203
     46 C                     0.244966
     47 C                    -0.277853
     48 H                     0.280754
     49 C                     0.080359
     50 C                    -0.006799
     51 N                    -0.154557
     52 C                    -0.009836
     53 N                    -0.154893
     54 C                    -0.439706
     55 C                     0.078507
     56 C                    -0.259998
     57 H                     0.219910
     58 C                    -0.229057
     59 H                     0.229717
     60 C                    -0.213137
     61 H                     0.229749
     62 C                    -0.328948
     63 H                     0.214792
     64 C                     0.153746
     65 C                     0.148239
     66 C                    -0.324825
     67 H                     0.213419
     68 C                    -0.213138
     69 H                     0.228802
     70 C                    -0.227168
     71 H                     0.227519
     72 C                    -0.266128
     73 H                     0.218486
     74 C                     0.128641
     75 C                    -0.594477
     76 H                     0.237910
     77 H                     0.219030
     78 H                     0.219876
  ----------------------------------------
  Sum of atomic charges =     0.000000

                    Cartesian Multipole Moments
 -----------------------------------------------------------------
    Charge (ESU x 10^10)
                 0.0000
    Dipole Moment (Debye)
         X      -3.4608      Y       5.1509      Z       3.8265
       Tot       7.2905
    Quadrupole Moments (Debye-Ang)
        XX    -293.3079     XY      58.4916     YY    -314.9234
        XZ      44.7924     YZ     -54.0349     ZZ    -297.0997

 Total job time:  5523.32s(wall), 26206.92s(cpu)
        *  Thank you very much for using Q-Chem.  Have a nice day.  *
