 Q-Chem 5.0, Q-Chem, Inc., Pleasanton, CA (2017)
 Q-Chem 5.0.1 for Intel X86 EM64T Linux

User input:
--------------------------------------------------------------
$rem
threads 8
jobtype	opt
method PBEh-3c
basis def2-mSVP
mem_static	512
mem_total	6096
sym_ignore	true
$end

$molecule
read incoords_2_b.mol
$end

--------------------------------------------------------------

   15   -1855.5283489938      7.74E-09 Convergence criterion met
 Total energy in the final basis set = -1855.52834899
   13   -1855.5292527382      5.57E-09 Convergence criterion met
 Total energy in the final basis set = -1855.52925274
   12   -1855.5295766488      8.14E-09 Convergence criterion met
 Total energy in the final basis set = -1855.52957665
   13   -1855.5298602743      4.08E-09 Convergence criterion met
 Total energy in the final basis set = -1855.52986027
   13   -1855.5298486914      4.76E-09 Convergence criterion met
 Total energy in the final basis set = -1855.52984869
   11   -1855.5299503619      8.49E-09 Convergence criterion met
 Total energy in the final basis set = -1855.52995036
   11   -1855.5299980771      6.62E-09 Convergence criterion met
 Total energy in the final basis set = -1855.52999808
   12   -1855.5299842630      5.40E-09 Convergence criterion met
   13   -1855.5300048317      3.64E-09 Convergence criterion met
 Total energy in the final basis set = -1855.53000483
   11   -1855.5300748832      6.59E-09 Convergence criterion met
 Total energy in the final basis set = -1855.53007488
   11   -1855.5301105646      5.38E-09 Convergence criterion met
 Total energy in the final basis set = -1855.53011056
   11   -1855.5301312860      6.32E-09 Convergence criterion met
 Total energy in the final basis set = -1855.53013129
   10   -1855.5301397838      6.59E-09 Convergence criterion met
 Total energy in the final basis set = -1855.53013978
    8   -1855.5301438319      9.62E-09 Convergence criterion met
 Total energy in the final basis set = -1855.53014383

             Standard Nuclear Orientation (Angstroms)
    I     Atom           X                Y                Z
 ----------------------------------------------------------------
    1      C      -2.0694025972    -1.4336456407    -0.7507287045
    2      C      -1.5482442236    -1.3387423663     0.5443427185
    3      C      -0.9272862079    -2.4388687680     1.1048724763
    4      C      -1.9660319951    -2.6405696403    -1.4150845623
    5      C      -1.3522162815    -3.7570909403    -0.8483744085
    6      C      -0.8011008436    -3.6574601812     0.4310923550
    7      C       0.0140650709    -4.7189969882     1.1824522294
    8      C       0.1383100539    -6.1723524170     0.7035111898
    9      C      -0.8076022834    -6.8705589114    -0.0495671404
   10      C      -1.9270576297    -6.1933775364    -0.7808416956
   11      C      -1.4049056344    -5.0355929599    -1.6301363137
   12      C      -0.6658968027    -8.2482704137    -0.2124950298
   13      C       0.3828810183    -8.9510924334     0.3438337106
   14      C       1.2196672915    -6.8887804555     1.2197794084
   15      C       1.3517304719    -8.2528065865     1.0489360149
   16      N       2.4640013210    -8.9076310268     1.6324031570
   17      C       2.3554080387    -9.3623570143     2.9511842057
   18      C       1.1251239389    -9.3787143470     3.6063751149
   19      C       1.0280129754    -9.8919487389     4.8873608849
   20      C       2.1464128914   -10.4058287140     5.5196629292
   21      C       3.3714104788   -10.3659491166     4.8710697175
   22      C       3.5056373333    -9.8259968212     3.5996631984
   23      C       4.8374355051    -9.6108052141     2.9096198407
   24      C       4.6524388704    -9.8801435464     1.4288436355
   25      C       5.6258802928   -10.4628352366     0.6300408640
   26      C       5.4945164564   -10.5327607128    -0.7484644571
   27      C       4.3692533490    -9.9936406951    -1.3456072754
   28      H       0.4615092401   -10.0236411718     0.2198517448
   29      C       3.3662385201    -9.4362785629    -0.5718967328
   30      C       3.4843111613    -9.4048908056     0.8175922548
   31      C      -0.4660678879    -4.8188801188     2.6259716909
   32      C       0.5155165381    -4.3802760246     3.5130049677
   33      C       1.6718331876    -3.9318427354     2.7380960368
   34      C       1.3961391675    -4.1177135130     1.3842097240
   35      C       0.2803488071    -4.4206713379     4.8787607063
   36      C      -0.9398011609    -4.9001892645     5.3332061144
   37      C      -1.9141824890    -5.3338937590     4.4408146175
   38      C      -1.6808784443    -5.2964504292     3.0731326112
   39      C       2.8922972463    -3.4039898446     3.1288241306
   40      C       3.8190933510    -3.0727912542     2.1505267288
   41      C       3.5357714517    -3.2640764555     0.8022872941
   42      C       2.3133624003    -3.7910139516     0.4086368306
   43      C      -2.7150961505    -0.3312155943    -1.3825469678
   44      N      -3.2411358251     0.5423085450    -1.9163033138
   45      C      -1.6532764684    -0.1286226989     1.2907156925
   46      N      -1.7351201789     0.8411063941     1.9048142829
   47      C       5.9483074418   -10.4574672550     3.5191837109
   48      C       5.2176465466    -8.1239415800     3.0682369180
   49      H       2.0889339134    -3.9471193067    -0.6395982153
   50      H       4.2733855499    -3.0007926353     0.0562337261
   51      H       4.7759615887    -2.6597982470     2.4400463436
   52      H       3.1243301013    -3.2524996611     4.1751111279
   53      H      -2.4358807762    -5.6392410881     2.3758127728
   54      H      -2.8596218531    -5.7031437105     4.8153468234
   55      H      -1.1365122114    -4.9377257333     6.3961802923
   56      H       1.0302713570    -4.0859335253     5.5836553639
   57      H      -2.3899284818    -2.7245780015    -2.4075677482
   58      H      -0.5288221531    -2.3352506061     2.1043603129
   59      H       0.0654858882    -9.9002688353     5.3818529650
   60      H       2.0727482852   -10.8244313505     6.5142202657
   61      H       0.2372962871    -9.0007067608     3.1190206257
   62      H       4.2406012572   -10.7538114500     5.3839880450
   63      H       6.5235529412   -10.8584101007     1.0839582314
   64      H       2.4919165296    -9.0313567122    -1.0608185731
   65      H       6.2731667116   -10.9863872611    -1.3465460073
   66      H       4.2569292334   -10.0132638848    -2.4218835740
   67      H       1.9846014575    -6.3874538208     1.7950339674
   68      H      -1.4062359071    -8.7809670863    -0.7974545562
   69      H      -2.7048779116    -5.8307685629    -0.1018065279
   70      H      -2.4140887470    -6.9253804828    -1.4267772883
   71      H      -2.0558975930    -4.8875463577    -2.4933515907
   72      H      -0.4227736444    -5.2956238929    -2.0348413836
   73      H       4.4634844016    -7.4649989068     2.6381415936
   74      H       6.1638988363    -7.9186453809     2.5648803357
   75      H       5.3217855559    -7.8689453401     4.1242106931
   76      H       5.7434549655   -11.5254791341     3.4344451277
   77      H       6.0861964420   -10.2168673514     4.5729021115
   78      H       6.9040536628   -10.2522719727     3.0377886342
 ----------------------------------------------------------------

    8   -1855.5301451310      8.75E-09 Convergence criterion met
 Total energy in the final basis set = -1855.53014513
 Final energy is   -1855.53014513097
 **  OPTIMIZATION CONVERGED  **

                    Orbital Energies (a.u.)
 --------------------------------------------------------------

 Alpha MOs
 -- Occupied --
-14.680 -14.656 -14.653 -10.521 -10.519 -10.509 -10.507 -10.500
-10.499 -10.498 -10.497 -10.492 -10.492 -10.491 -10.490 -10.487
-10.479 -10.476 -10.475 -10.474 -10.474 -10.473 -10.470 -10.469
-10.467 -10.466 -10.466 -10.466 -10.466 -10.465 -10.465 -10.464
-10.464 -10.463 -10.462 -10.452 -10.451 -10.445 -10.444 -10.444
-10.443 -10.443 -10.441 -10.438 -10.437 -10.431 -10.426  -1.093
 -1.042  -1.030  -1.019  -1.003  -0.988  -0.968  -0.961  -0.959
 -0.938  -0.933  -0.912  -0.898  -0.891  -0.885  -0.858  -0.856
 -0.850  -0.846  -0.835  -0.825  -0.820  -0.808  -0.795  -0.773
 -0.772  -0.747  -0.731  -0.726  -0.714  -0.710  -0.704  -0.692
 -0.681  -0.678  -0.673  -0.672  -0.666  -0.646  -0.619  -0.614
 -0.613  -0.611  -0.595  -0.585  -0.581  -0.574  -0.568  -0.560
 -0.541  -0.540  -0.537  -0.533  -0.530  -0.524  -0.522  -0.521
 -0.516  -0.511  -0.505  -0.504  -0.502  -0.501  -0.499  -0.494
 -0.492  -0.490  -0.487  -0.485  -0.475  -0.469  -0.460  -0.452
 -0.448  -0.444  -0.441  -0.439  -0.437  -0.435  -0.434  -0.430
 -0.428  -0.425  -0.424  -0.422  -0.419  -0.417  -0.416  -0.413
 -0.412  -0.404  -0.399  -0.398  -0.397  -0.395  -0.393  -0.379
 -0.374  -0.364  -0.349  -0.339  -0.321  -0.312  -0.309  -0.303
 -0.297  -0.292  -0.288  -0.282  -0.271  -0.231

          Ground-State Mulliken Net Atomic Charges

     Atom                 Charge (a.u.)
  ----------------------------------------
      1 C                     0.078779
      2 C                     0.079639
      3 C                    -0.277104
      4 C                    -0.320878
      5 C                     0.083864
      6 C                     0.242799
      7 C                    -0.439920
      8 C                     0.200063
      9 C                     0.084027
     10 C                    -0.533644
     11 C                    -0.526539
     12 C                    -0.301682
     13 C                    -0.245050
     14 C                    -0.279383
     15 C                     0.215860
     16 N                    -0.705992
     17 C                     0.311832
     18 C                    -0.283431
     19 C                    -0.235148
     20 C                    -0.218276
     21 C                    -0.327900
     22 C                     0.172016
     23 C                    -0.232505
     24 C                     0.158123
     25 C                    -0.323520
     26 C                    -0.220151
     27 C                    -0.232481
     28 H                     0.251110
     29 C                    -0.300348
     30 C                     0.323348
     31 C                     0.131323
     32 C                     0.147675
     33 C                     0.154748
     34 C                     0.074294
     35 C                    -0.324791
     36 C                    -0.212884
     37 C                    -0.227382
     38 C                    -0.267303
     39 C                    -0.329061
     40 C                    -0.213191
     41 C                    -0.230016
     42 C                    -0.256251
     43 C                    -0.006911
     44 N                    -0.154664
     45 C                    -0.009630
     46 N                    -0.155021
     47 C                    -0.664714
     48 C                    -0.596094
     49 H                     0.220139
     50 H                     0.229613
     51 H                     0.229558
     52 H                     0.214780
     53 H                     0.218412
     54 H                     0.227402
     55 H                     0.228650
     56 H                     0.213388
     57 H                     0.247095
     58 H                     0.281062
     59 H                     0.215457
     60 H                     0.211921
     61 H                     0.245148
     62 H                     0.212960
     63 H                     0.213944
     64 H                     0.244668
     65 H                     0.212598
     66 H                     0.215035
     67 H                     0.262171
     68 H                     0.219272
     69 H                     0.248498
     70 H                     0.250460
     71 H                     0.249057
     72 H                     0.259212
     73 H                     0.238934
     74 H                     0.219992
     75 H                     0.218844
     76 H                     0.238706
     77 H                     0.227774
     78 H                     0.227616
  ----------------------------------------
  Sum of atomic charges =     0.000000

                    Cartesian Multipole Moments
 -----------------------------------------------------------------
    Charge (ESU x 10^10)
                 0.0000
    Dipole Moment (Debye)
         X       2.1911      Y      -6.9185      Z       0.2192
       Tot       7.2605
    Quadrupole Moments (Debye-Ang)
        XX    -258.1788     XY      19.0038     YY    -263.3978
        XZ       3.8144     YZ       0.9568     ZZ    -249.1691

 Total job time:  11525.16s(wall), 44691.82s(cpu)
        *  Thank you very much for using Q-Chem.  Have a nice day.  *
