 Q-Chem 5.0, Q-Chem, Inc., Pleasanton, CA (2017)
 Q-Chem 5.0.1 for Intel X86 EM64T Linux

User input:
--------------------------------------------------------------
$rem
threads 8
jobtype	sp
method PBEh-3c
basis def2-mSVP
mem_static	1024
mem_total	14000
sym_ignore	true
cis_n_roots             6
cis_singlets            true
cis_triplets		true
rpa                     false
calc_soc 		true
cis_moments             true
cis_relaxed_density	true
$end

$molecule
read s1opt.mol
$end

--------------------------------------------------------------

             Standard Nuclear Orientation (Angstroms)
    I     Atom           X                Y                Z
 ----------------------------------------------------------------
    1      N       0.0000000000     0.0000000000     0.0000000000
    2      C       0.0000000000     0.0000000000     1.3738420000
    3      C       1.1633572231     0.0000000000    -0.7307854048
    4      C      -1.1767290887     0.3525793702     2.0641012234
    5      H      -2.0671155341     0.6196480320     1.5161915620
    6      C      -1.1796200483     0.3873531427     3.4363216445
    7      H      -2.0798861477     0.6704657286     3.9620911651
    8      C      -0.0208160337     0.0754302211     4.1393957887
    9      H      -0.0157560093     0.1082868727     5.2198304658
   10      C       1.1366278619    -0.2788175561     3.4587177382
   11      H       2.0145307119    -0.5257669053     4.0368773055
   12      C       1.1782302992    -0.3279531376     2.0776536029
   13      C       1.1354102662     0.3004476836    -2.1075752217
   14      H       0.2038722316     0.4825686260    -2.6198413751
   15      C       2.3120145347     0.4076539097    -2.8051838971
   16      H       2.2792760865     0.6746920487    -3.8509185438
   17      C       3.5253284265     0.1920739350    -2.1603863938
   18      H       4.4545445958     0.2883642421    -2.7041033567
   19      C       3.5499700530    -0.1664501536    -0.8176889186
   20      H       4.5057018271    -0.3651830586    -0.3564875557
   21      C       2.3882330204    -0.2823854282    -0.0803340965
   22      C      -1.2696777214     0.0599917706    -0.6726341505
   23      C      -1.6814575326     1.2343533546    -1.2521132288
   24      H      -1.0388289305     2.1018353956    -1.1763340962
   25      C      -2.0585806370    -1.0771505610    -0.7161955503
   26      H      -1.7364130297    -2.0079753928    -0.2673522108
   27      C      -3.2857000155    -0.9656820962    -1.3302374398
   28      H      -3.9420343132    -1.8268141669    -1.3403551557
   29      C      -2.8832053228     1.3299768767    -1.9586367927
   30      C      -3.7289579772     0.2152778247    -1.9403476996
   31      C      -5.1365156421     0.2205481533    -2.4615449492
   32      H      -5.6615620324    -0.6277427210    -2.0166626462
   33      H      -5.1523654060     0.0593901974    -3.5423520184
   34      C       2.3676805458    -0.8561006163     1.3171575240
   35      C       3.6799868791    -0.6185484794     2.0625187477
   36      H       4.5163949388    -1.0744915396     1.5367862698
   37      H       3.6646806411    -1.0889594855     3.0435538814
   38      H       3.8879661645     0.4429425871     2.1926948749
   39      C      -5.8652804281     1.5248418089    -2.1380771657
   40      H      -6.9376622123     1.3316835166    -2.0818420436
   41      H      -5.5714030344     1.8520151223    -1.1322019807
   42      C      -5.6075470575     2.5426342779    -3.2047364065
   43      C      -6.6710819858     3.0159590106    -3.9242834426
   44      H      -7.6727611130     2.7526499797    -3.6036266589
   45      C      -6.5449877745     3.7891333936    -5.0913943727
   46      C      -7.6908803557     4.2399577114    -5.7570685179
   47      N      -8.6602100417     4.5944295539    -6.2903590525
   48      C      -5.2056084971     4.0343521980    -5.5633512908
   49      C      -4.1292590689     3.5747003909    -4.8020035794
   50      H      -3.1452481815     3.8326337690    -5.1676831059
   51      C      -4.2651008900     2.8464054244    -3.6368172277
   52      C      -4.9428549831     4.7182953685    -6.7637338435
   53      N      -4.7019351437     5.2799267038    -7.7489368348
   54      C      -3.0410108466     2.6510562714    -2.7455079298
   55      C      -1.7456667902     2.7832536110    -3.5461246566
   56      C      -1.3054316127     1.9571001808    -4.5621162433
   57      H      -1.9196951794     1.1322185375    -4.9026493102
   58      C      -0.0876017496     2.2363238666    -5.1706633824
   59      H       0.2549707226     1.6216513226    -5.9934755801
   60      C       0.6755837072     3.3225966126    -4.7529217661
   61      H       1.6141456522     3.5389126360    -5.2467147445
   62      C       0.2327264540     4.1477256334    -3.7290505075
   63      H       0.8258558714     4.9991249983    -3.4198907996
   64      C      -0.9877983437     3.8740263001    -3.1277053389
   65      C      -1.7075439618     4.5469023818    -2.0502951181
   66      C      -1.4001693770     5.6916682543    -1.3327240505
   67      H      -0.4931165294     6.2477854481    -1.5343864061
   68      C      -2.2871597863     6.1283369684    -0.3591355590
   69      H      -2.0701474311     7.0270359161     0.2027107066
   70      C      -3.4637351048     5.4290349511    -0.1138721403
   71      H      -4.1553206770     5.7917416427     0.6354251661
   72      C      -3.7714597668     4.2814503326    -0.8323783859
   73      H      -4.7039756419     3.7622284013    -0.6554479664
   74      C      -2.8866873996     3.8421437181    -1.7990587330
   75      C       2.1582071748    -2.3878543870     1.1692463428
   76      H       2.9809558047    -2.8254803805     0.6038484990
   77      H       2.1238764372    -2.8562087270     2.1531170928
   78      H       1.2301578260    -2.6302455481     0.6508594013
 ----------------------------------------------------------------

   15   -1855.5182437336      7.13E-09 Convergence criterion met
 Total energy in the final basis set = -1855.51824373

         TDDFT/TDA Excitation Energies
 ---------------------------------------------------

 Excited state   1: excitation energy (eV) =    3.0003
 Total energy for state  1:                 -1855.40798302 au
    Multiplicity: Triplet
    Trans. Mom.:  0.0000 X   0.0000 Y   0.0000 Z
    Strength   :     0.0000000000
    D(150) --> V(  1) amplitude = -0.4261
    D(151) --> V(  1) amplitude =  0.7214
    D(153) --> V(  1) amplitude = -0.2214

 Excited state   2: excitation energy (eV) =    3.1190
 Total energy for state  2:                 -1855.40362144 au
    Multiplicity: Triplet
    Trans. Mom.:  0.0000 X   0.0000 Y   0.0000 Z
    Strength   :     0.0000000000
    D(158) --> V(  1) amplitude =  0.9887

 Excited state   3: excitation energy (eV) =    3.1196
 Total energy for state  3:                 -1855.40360127 au
    Multiplicity: Singlet
    Trans. Mom.: -0.1181 X   0.0838 Y  -0.1040 Z
    Strength   :     0.0024284794
    D(158) --> V(  1) amplitude =  0.9975

 Excited state   4: excitation energy (eV) =    3.3669
 Total energy for state  4:                 -1855.39451239 au
    Multiplicity: Triplet
    Trans. Mom.:  0.0000 X   0.0000 Y   0.0000 Z
    Strength   :     0.0000000000
    D(157) --> V(  2) amplitude = -0.6219
    D(157) --> V(  3) amplitude =  0.5412

 Excited state   5: excitation energy (eV) =    3.4505
 Total energy for state  5:                 -1855.39144184 au
    Multiplicity: Triplet
    Trans. Mom.:  0.0000 X   0.0000 Y   0.0000 Z
    Strength   :     0.0000000000
    D(158) --> V(  7) amplitude = -0.6608
    D(158) --> V(  8) amplitude = -0.5439

 Excited state   6: excitation energy (eV) =    3.7698
 Total energy for state  6:                 -1855.37970648 au
    Multiplicity: Triplet
    Trans. Mom.:  0.0000 X   0.0000 Y   0.0000 Z
    Strength   :     0.0000000000
    D(152) --> V(  6) amplitude = -0.2934
    D(158) --> V(  4) amplitude =  0.3316
    D(158) --> V(  5) amplitude =  0.2177
    D(158) --> V(  6) amplitude = -0.3692
    D(158) --> V(  8) amplitude = -0.3102

 Excited state   7: excitation energy (eV) =    3.8611
 Total energy for state  7:                 -1855.37634914 au
    Multiplicity: Triplet
    Trans. Mom.:  0.0000 X   0.0000 Y   0.0000 Z
    Strength   :     0.0000000000
    D(148) --> V(  1) amplitude =  0.3551
    D(149) --> V(  1) amplitude = -0.4921
    D(157) --> V(  1) amplitude =  0.5799

 Excited state   8: excitation energy (eV) =    3.9412
 Total energy for state  8:                 -1855.37340667 au
    Multiplicity: Singlet
    Trans. Mom.:  0.0059 X  -0.0454 Y   0.0537 Z
    Strength   :     0.0004804089
    D(158) --> V(  2) amplitude =  0.9474
    D(158) --> V(  3) amplitude = -0.2780

 Excited state   9: excitation energy (eV) =    4.0184
 Total energy for state  9:                 -1855.37056899 au
    Multiplicity: Singlet
    Trans. Mom.: -0.4041 X  -0.0449 Y  -0.2064 Z
    Strength   :     0.0204667833
    D(157) --> V(  1) amplitude =  0.9870

 Excited state  10: excitation energy (eV) =    4.1023
 Total energy for state 10:                 -1855.36748857 au
    Multiplicity: Singlet
    Trans. Mom.:  0.0899 X   0.0990 Y  -0.0011 Z
    Strength   :     0.0017967559
    D(158) --> V(  4) amplitude =  0.7603
    D(158) --> V(  5) amplitude =  0.5938

 Excited state  11: excitation energy (eV) =    4.1303
 Total energy for state 11:                 -1855.36645913 au
    Multiplicity: Singlet
    Trans. Mom.:  0.3013 X  -0.1226 Y   0.3395 Z
    Strength   :     0.0223673636
    D(158) --> V(  3) amplitude =  0.6284
    D(158) --> V(  4) amplitude =  0.2175
    D(158) --> V(  6) amplitude = -0.6889

 Excited state  12: excitation energy (eV) =    4.4611
 Total energy for state 12:                 -1855.35429951 au
    Multiplicity: Singlet
    Trans. Mom.:  0.0808 X  -0.0025 Y  -0.2819 Z
    Strength   :     0.0093973102
    D(158) --> V(  2) amplitude =  0.2369
    D(158) --> V(  3) amplitude =  0.6529
    D(158) --> V(  6) amplitude =  0.6336
    D(158) --> V(  7) amplitude = -0.2272

 ---------------------------------------------------

                    Orbital Energies (a.u.)
 --------------------------------------------------------------

 Alpha MOs
 -- Occupied --
-14.680 -14.663 -14.660 -10.530 -10.528 -10.514 -10.511 -10.505
-10.505 -10.502 -10.499 -10.496 -10.493 -10.491 -10.491 -10.488
-10.481 -10.479 -10.477 -10.477 -10.475 -10.474 -10.470 -10.469
-10.468 -10.468 -10.468 -10.467 -10.467 -10.466 -10.465 -10.465
-10.465 -10.464 -10.463 -10.450 -10.449 -10.442 -10.442 -10.441
-10.440 -10.440 -10.436 -10.435 -10.433 -10.429 -10.426  -1.097
 -1.041  -1.030  -1.020  -1.002  -0.988  -0.969  -0.959  -0.955
 -0.938  -0.935  -0.909  -0.902  -0.892  -0.885  -0.860  -0.857
 -0.848  -0.847  -0.835  -0.826  -0.818  -0.808  -0.795  -0.777
 -0.771  -0.747  -0.732  -0.728  -0.714  -0.713  -0.706  -0.690
 -0.683  -0.679  -0.673  -0.668  -0.666  -0.646  -0.617  -0.615
 -0.614  -0.611  -0.600  -0.588  -0.582  -0.572  -0.566  -0.562
 -0.541  -0.539  -0.536  -0.533  -0.531  -0.527  -0.524  -0.521
 -0.518  -0.512  -0.509  -0.504  -0.503  -0.500  -0.497  -0.492
 -0.490  -0.488  -0.485  -0.485  -0.473  -0.468  -0.461  -0.452
 -0.449  -0.445  -0.442  -0.441  -0.439  -0.438  -0.436  -0.434
 -0.429  -0.428  -0.427  -0.421  -0.421  -0.418  -0.415  -0.412
 -0.410  -0.403  -0.400  -0.399  -0.398  -0.396  -0.393  -0.375
 -0.374  -0.366  -0.350  -0.336  -0.326  -0.313  -0.306  -0.303
 -0.300  -0.289  -0.285  -0.282  -0.271  -0.219

          Ground-State Mulliken Net Atomic Charges

     Atom                 Charge (a.u.)
  ----------------------------------------
      1 N                    -0.697049
      2 C                     0.311718
      3 C                     0.316950
      4 C                    -0.292114
      5 H                     0.245640
      6 C                    -0.230095
      7 H                     0.213851
      8 C                    -0.227712
      9 H                     0.209948
     10 C                    -0.313928
     11 H                     0.208860
     12 C                     0.163926
     13 C                    -0.307471
     14 H                     0.267011
     15 C                    -0.225165
     16 H                     0.211197
     17 C                    -0.229850
     18 H                     0.207205
     19 C                    -0.311469
     20 H                     0.209343
     21 C                     0.149862
     22 C                     0.180904
     23 C                    -0.269722
     24 H                     0.285338
     25 C                    -0.211393
     26 H                     0.239890
     27 C                    -0.303422
     28 H                     0.219457
     29 C                     0.230157
     30 C                     0.059282
     31 C                    -0.515044
     32 H                     0.248679
     33 H                     0.254244
     34 C                    -0.237253
     35 C                    -0.648471
     36 H                     0.224456
     37 H                     0.224530
     38 H                     0.241754
     39 C                    -0.547494
     40 H                     0.253037
     41 H                     0.256838
     42 C                     0.142488
     43 C                    -0.314385
     44 H                     0.246718
     45 C                     0.075754
     46 C                    -0.005553
     47 N                    -0.158302
     48 C                     0.082618
     49 C                    -0.290742
     50 H                     0.281113
     51 C                     0.153984
     52 C                    -0.005983
     53 N                    -0.158577
     54 C                    -0.411400
     55 C                     0.022241
     56 C                    -0.256422
     57 H                     0.231544
     58 C                    -0.240317
     59 H                     0.232310
     60 C                    -0.208382
     61 H                     0.231386
     62 C                    -0.325984
     63 H                     0.215246
     64 C                     0.162809
     65 C                     0.129916
     66 C                    -0.320295
     67 H                     0.214635
     68 C                    -0.216380
     69 H                     0.230192
     70 C                    -0.220482
     71 H                     0.227471
     72 C                    -0.283286
     73 H                     0.215062
     74 C                     0.176147
     75 C                    -0.588619
     76 H                     0.221264
     77 H                     0.219066
     78 H                     0.226720
  ----------------------------------------
  Sum of atomic charges =    -0.000000

                    Cartesian Multipole Moments
 -----------------------------------------------------------------
    Charge (ESU x 10^10)
                -0.0000
    Dipole Moment (Debye)
         X       2.3336      Y      -3.4343      Z       5.4265
       Tot       6.8328
    Quadrupole Moments (Debye-Ang)
        XX    -286.4609     XY      37.5611     YY    -287.5038
        XZ     -53.0840     YZ      44.8996     ZZ    -323.8558

 Total job time:  6046.23s(wall), 32532.28s(cpu)
        *  Thank you very much for using Q-Chem.  Have a nice day.  *
