 Q-Chem 5.1, Q-Chem, Inc., Pleasanton, CA (2018)
 Q-Chem 5.1.1 for Intel X86 EM64T Linux

User input:
--------------------------------------------------------------
$rem
threads 8
jobtype	opt
method PBEh-3c
basis def2-mSVP
mem_static	1024
mem_total	14000
sym_ignore	true
cis_n_roots             4
cis_singlets            true
cis_triplets		false
rpa                     false
cis_state_deriv         3
state_follow		true
$end

$molecule
read s1opt.mol
$end

--------------------------------------------------------------

   15   -1855.5182437308      7.08e-09  Convergence criterion met
 Total energy in the final basis set =    -1855.5182437308
   13   -1855.5178677752      4.89e-09  Convergence criterion met
 Total energy in the final basis set =    -1855.5178677752
   12   -1855.5165953855      7.73e-09  Convergence criterion met
 Total energy in the final basis set =    -1855.5165953855
   12   -1855.5168475362      7.40e-09  Convergence criterion met
 Total energy in the final basis set =    -1855.5168475362
   12   -1855.5168591038      4.77e-09  Convergence criterion met
 Total energy in the final basis set =    -1855.5168591038
   11   -1855.5172813463      8.84e-09  Convergence criterion met
 Total energy in the final basis set =    -1855.5172813463
   11   -1855.5170594643      4.69e-09  Convergence criterion met
 Total energy in the final basis set =    -1855.5170594643
   11   -1855.5167602323      4.78e-09  Convergence criterion met
 Total energy in the final basis set =    -1855.5167602323
   11   -1855.5164906595      7.10e-09  Convergence criterion met
 Total energy in the final basis set =    -1855.5164906595
   10   -1855.5166078601      3.55e-09  Convergence criterion met
 Total energy in the final basis set =    -1855.5166078601
   10   -1855.5166060172      3.03e-09  Convergence criterion met
 Total energy in the final basis set =    -1855.5166060172
    9   -1855.5166055147      7.04e-09  Convergence criterion met
 Total energy in the final basis set =    -1855.5166055147
    9   -1855.5165697843      4.75e-09  Convergence criterion met
 Total energy in the final basis set =    -1855.5165697843

             Standard Nuclear Orientation (Angstroms)
    I     Atom           X                Y                Z
 ----------------------------------------------------------------
    1      N       0.1240579709     0.1361172781     0.0787948841
    2      C       0.1438053770     0.1579728310     1.4782254098
    3      C       1.3359703409     0.1234927959    -0.6196262570
    4      C      -0.8992830802     0.7407227173     2.1938782106
    5      H      -1.7511930260     1.1556051079     1.6715627284
    6      C      -0.8410343637     0.8020922922     3.5746383208
    7      H      -1.6569166987     1.2549788160     4.1224390861
    8      C       0.2629142318     0.3045182086     4.2467532481
    9      H       0.3206195340     0.3625881623     5.3251601416
   10      C       1.2915420346    -0.2855196046     3.5280371314
   11      H       2.1381095457    -0.6873690603     4.0676136263
   12      C       1.2407157402    -0.3942049615     2.1452750522
   13      C       1.4463515216     0.6246205422    -1.9156914603
   14      H       0.5778292646     0.9966331810    -2.4399270817
   15      C       2.6744617892     0.6511237024    -2.5522320264
   16      H       2.7402409347     1.0449927189    -3.5584815465
   17      C       3.8080560299     0.1940503992    -1.9039356238
   18      H       4.7737229129     0.2285853597    -2.3895952818
   19      C       3.6880381667    -0.3372650826    -0.6291987226
   20      H       4.5728250111    -0.7259781175    -0.1446536228
   21      C       2.4625788932    -0.4116580046     0.0177012376
   22      C      -1.1196038164     0.1587705478    -0.5951290592
   23      C      -1.5853892193     1.2858501633    -1.2485077851
   24      H      -0.9762999619     2.1802464491    -1.2057276367
   25      C      -1.9087723293    -0.9824631799    -0.5997459847
   26      H      -1.5711025266    -1.8740881268    -0.0877806310
   27      C      -3.1327938795    -0.9637187398    -1.2386703680
   28      H      -3.7544205778    -1.8498935267    -1.2049457158
   29      C      -2.7916892645     1.2905358881    -1.9649124967
   30      C      -3.6002824777     0.1508142949    -1.9331198692
   31      C      -4.9801197033     0.0826942178    -2.5239263668
   32      H      -5.4676218993    -0.8118380043    -2.1322139980
   33      H      -4.9408270299    -0.0405509576    -3.6091814901
   34      C       2.2489066244    -1.1659287490     1.3161203310
   35      C       3.5511959114    -1.4107944396     2.0689862559
   36      H       4.2412690182    -2.0050146290     1.4704568851
   37      H       3.3721065129    -1.9833467433     2.9786232020
   38      H       4.0484810978    -0.4796833157     2.3430823628
   39      C      -5.8156984327     1.3210182080    -2.1891711707
   40      H      -6.8737518657     1.0546971368    -2.1767173334
   41      H      -5.5798562399     1.6301208671    -1.1625622894
   42      C      -5.6004907924     2.3985798169    -3.2063507217
   43      C      -6.6807348652     2.9516243559    -3.8419085315
   44      H      -7.6756033310     2.6908495673    -3.4988427231
   45      C      -6.5792080429     3.8056008636    -4.9534174504
   46      C      -7.7330897164     4.3598571093    -5.5274203940
   47      N      -8.6986537689     4.8072152635    -5.9886073520
   48      C      -5.2626482512     4.0430441080    -5.4777901415
   49      C      -4.1690693593     3.5123903430    -4.8038242949
   50      H      -3.1987706542     3.7826942033    -5.1988876184
   51      C      -4.2758735725     2.7088544745    -3.6808279576
   52      C      -5.0337484223     4.8092156629    -6.6395459362
   53      N      -4.8093932487     5.4405821516    -7.5834608091
   54      C      -3.0418436719     2.5552784836    -2.7944745350
   55      C      -1.7844234164     2.7678535451    -3.6028067853
   56      C      -1.2527456229     1.9343393057    -4.5641771437
   57      H      -1.7365709562     0.9999631240    -4.8131797063
   58      C      -0.1057007902     2.3455237952    -5.2202003400
   59      H       0.3177038795     1.7207755787    -5.9952105604
   60      C       0.5238336880     3.5724938497    -4.9149169914
   61      H       1.4190941400     3.8515861930    -5.4523473831
   62      C       0.0089567469     4.4055178116    -3.9569261322
   63      H       0.4890415457     5.3453003486    -3.7217333359
   64      C      -1.1600256356     4.0035017183    -3.2880700089
   65      C      -1.9224430586     4.6452895131    -2.2825744382
   66      C      -1.7576104057     5.9004913498    -1.6779056591
   67      H      -0.9433159383     6.5524555004    -1.9635696468
   68      C      -2.6587401236     6.2761596904    -0.7164459754
   69      H      -2.5715934524     7.2383157254    -0.2323913503
   70      C      -3.7140999033     5.4119506016    -0.3476872596
   71      H      -4.4153693796     5.7429697267     0.4064989475
   72      C      -3.8842586735     4.1667427852    -0.9302616200
   73      H      -4.7074033249     3.5310685236    -0.6395303252
   74      C      -3.0022400084     3.7849442236    -1.9191980223
   75      C       1.6389548166    -2.5400934028     0.9645282209
   76      H       2.3374841508    -3.1210952301     0.3599101432
   77      H       1.4152295985    -3.1036446585     1.8718396781
   78      H       0.7149513194    -2.4457168181     0.3946560227
 ----------------------------------------------------------------

    8   -1855.5165554851      5.91e-09  Convergence criterion met
 Total energy in the final basis set =    -1855.5165554851

         TDDFT/TDA Excitation Energies
 ---------------------------------------------------

 Excited state   1: excitation energy (eV) =    3.4442
 Total energy for state  1:                 -1855.38998196 au
    Multiplicity: Singlet
    Trans. Mom.:  0.0903 X  -0.0694 Y   0.0918 Z
    Strength   :     0.0018046862
    D(158) --> V(  1) amplitude =  0.9962

 Excited state   2: excitation energy (eV) =    3.7202
 Total energy for state  2:                 -1855.37984026 au
    Multiplicity: Singlet
    Trans. Mom.:  0.5306 X   0.0336 Y   0.1744 Z
    Strength   :     0.0285375093
    D(157) --> V(  1) amplitude =  0.9878

 Excited state   3: excitation energy (eV) =    4.1383
 Total energy for state  3:                 -1855.36447710 au
    Multiplicity: Singlet
    Trans. Mom.:  0.0836 X  -0.0227 Y   0.0158 Z
    Strength   :     0.0007863893
    D(158) --> V(  2) amplitude =  0.9757

 Excited state   4: excitation energy (eV) =    4.4228
 Total energy for state  4:                 -1855.35402144 au
    Multiplicity: Singlet
    Trans. Mom.: -0.3823 X   0.2383 Y  -0.5762 Z
    Strength   :     0.0579689947
    D(158) --> V(  3) amplitude =  0.5410
    D(158) --> V(  5) amplitude =  0.3168
    D(158) --> V(  6) amplitude = -0.7309

 ---------------------------------------------------

 Final energy is   -1855.37984025893
 **  OPTIMIZATION CONVERGED  **

                    Orbital Energies (a.u.)
 --------------------------------------------------------------

 Alpha MOs
 -- Occupied --
-14.677 -14.661 -14.658 -10.528 -10.525 -10.511 -10.509 -10.504
-10.503 -10.500 -10.499 -10.495 -10.491 -10.490 -10.489 -10.487
-10.479 -10.479 -10.477 -10.477 -10.474 -10.474 -10.470 -10.470
-10.468 -10.467 -10.467 -10.467 -10.466 -10.466 -10.465 -10.464
-10.464 -10.463 -10.462 -10.452 -10.451 -10.445 -10.445 -10.443
-10.443 -10.442 -10.439 -10.439 -10.436 -10.431 -10.428  -1.090
 -1.041  -1.030  -1.019  -1.000  -0.986  -0.965  -0.961  -0.958
 -0.937  -0.934  -0.911  -0.899  -0.891  -0.885  -0.860  -0.858
 -0.848  -0.848  -0.834  -0.819  -0.817  -0.811  -0.796  -0.776
 -0.774  -0.745  -0.732  -0.727  -0.716  -0.712  -0.701  -0.691
 -0.681  -0.677  -0.671  -0.670  -0.667  -0.645  -0.620  -0.614
 -0.612  -0.610  -0.599  -0.587  -0.580  -0.570  -0.567  -0.563
 -0.542  -0.540  -0.537  -0.535  -0.532  -0.527  -0.525  -0.521
 -0.518  -0.511  -0.509  -0.504  -0.503  -0.500  -0.496  -0.493
 -0.492  -0.489  -0.485  -0.483  -0.472  -0.468  -0.460  -0.450
 -0.447  -0.444  -0.441  -0.439  -0.438  -0.437  -0.434  -0.432
 -0.429  -0.428  -0.426  -0.423  -0.419  -0.417  -0.415  -0.414
 -0.410  -0.404  -0.400  -0.398  -0.397  -0.395  -0.392  -0.380
 -0.374  -0.360  -0.350  -0.335  -0.325  -0.315  -0.307  -0.303
 -0.298  -0.290  -0.288  -0.281  -0.261  -0.230

          Ground-State Mulliken Net Atomic Charges

     Atom                 Charge (a.u.)
  ----------------------------------------
      1 N                    -0.723465
      2 C                     0.305725
      3 C                     0.313459
      4 C                    -0.276840
      5 H                     0.239169
      6 C                    -0.237597
      7 H                     0.215709
      8 C                    -0.216163
      9 H                     0.213131
     10 C                    -0.329401
     11 H                     0.213384
     12 C                     0.170267
     13 C                    -0.293617
     14 H                     0.265873
     15 C                    -0.236894
     16 H                     0.213377
     17 C                    -0.217891
     18 H                     0.211388
     19 C                    -0.326062
     20 H                     0.212896
     21 C                     0.158184
     22 C                     0.261963
     23 C                    -0.316223
     24 H                     0.279004
     25 C                    -0.230171
     26 H                     0.235770
     27 C                    -0.297442
     28 H                     0.218045
     29 C                     0.223617
     30 C                     0.069471
     31 C                    -0.524515
     32 H                     0.249742
     33 H                     0.254132
     34 C                    -0.225492
     35 C                    -0.665133
     36 H                     0.228096
     37 H                     0.227727
     38 H                     0.239650
     39 C                    -0.535774
     40 H                     0.253407
     41 H                     0.257242
     42 C                     0.151062
     43 C                    -0.319384
     44 H                     0.246272
     45 C                     0.072636
     46 C                    -0.005525
     47 N                    -0.158487
     48 C                     0.083900
     49 C                    -0.281242
     50 H                     0.283882
     51 C                     0.141924
     52 C                    -0.004487
     53 N                    -0.158233
     54 C                    -0.405096
     55 C                     0.006443
     56 C                    -0.244115
     57 H                     0.230067
     58 C                    -0.245817
     59 H                     0.230335
     60 C                    -0.208793
     61 H                     0.230852
     62 C                    -0.314016
     63 H                     0.215887
     64 C                     0.152730
     65 C                     0.114479
     66 C                    -0.303455
     67 H                     0.214250
     68 C                    -0.214058
     69 H                     0.229918
     70 C                    -0.227355
     71 H                     0.225832
     72 C                    -0.267934
     73 H                     0.214830
     74 C                     0.159524
     75 C                    -0.600752
     76 H                     0.223467
     77 H                     0.220232
     78 H                     0.232482
  ----------------------------------------
  Sum of atomic charges =     0.000000

                    Cartesian Multipole Moments
 -----------------------------------------------------------------
    Charge (ESU x 10^10)
                 0.0000
    Dipole Moment (Debye)
         X       2.5943      Y      -4.1300      Z       5.2160
       Tot       7.1410
    Quadrupole Moments (Debye-Ang)
        XX    -290.9391     XY      38.9793     YY    -287.8947
        XZ     -53.3094     YZ      43.5178     ZZ    -318.6392

 Total job time:  27945.57s(wall), 199882.20s(cpu)
        *  Thank you very much for using Q-Chem.  Have a nice day.  *
