 Q-Chem 5.1, Q-Chem, Inc., Pleasanton, CA (2018)
 Q-Chem 5.1.1 for Intel X86 EM64T Linux

User input:
--------------------------------------------------------------
$rem
threads 8
jobtype	opt
method PBEh-3c
basis def2-mSVP
mem_static	1024
mem_total	14000
sym_ignore	true
cis_n_roots             3
cis_singlets            true
cis_triplets		false
rpa                     false
cis_state_deriv         2
state_follow		true
$end

$molecule
read s1opt.mol
$end

--------------------------------------------------------------

   15   -1855.5182437308      7.08e-09  Convergence criterion met
 Total energy in the final basis set =    -1855.5182437308
   13   -1855.5218541177      5.05e-09  Convergence criterion met
 Total energy in the final basis set =    -1855.5218541177
   12   -1855.5218245102      9.42e-09  Convergence criterion met
 Total energy in the final basis set =    -1855.5218245102
   13   -1855.5194723402      3.85e-09  Convergence criterion met
 Total energy in the final basis set =    -1855.5194723402
   11   -1855.5207661740      9.59e-09  Convergence criterion met
 Total energy in the final basis set =    -1855.5207661740
   11   -1855.5218700136      9.53e-09  Convergence criterion met
 Total energy in the final basis set =    -1855.5218700136
   11   -1855.5215727507      6.53e-09  Convergence criterion met
 Total energy in the final basis set =    -1855.5215727507
   10   -1855.5213090944      8.99e-09  Convergence criterion met
   11   -1855.5177152933      9.90e-09  Convergence criterion met
 Total energy in the final basis set =    -1855.5177152933
   11   -1855.5182325870      6.25e-09  Convergence criterion met
 Total energy in the final basis set =    -1855.5182325870
   10   -1855.5190390527      9.59e-09  Convergence criterion met
 Total energy in the final basis set =    -1855.5190390527
   10   -1855.5187214047      5.36e-09  Convergence criterion met
 Total energy in the final basis set =    -1855.5187214047
    9   -1855.5186863335      6.33e-09  Convergence criterion met
 Total energy in the final basis set =    -1855.5186863335
    9   -1855.5187000823      5.27e-09  Convergence criterion met
 Total energy in the final basis set =    -1855.5187000823

             Standard Nuclear Orientation (Angstroms)
    I     Atom           X                Y                Z
 ----------------------------------------------------------------
    1      N       0.0689397778     0.1246151359     0.0896203990
    2      C       0.0693138459     0.0752551600     1.4652541512
    3      C       1.2367168678     0.0954623384    -0.6323606697
    4      C      -1.0672093132     0.5150605263     2.1679050416
    5      H      -1.9301556931     0.8761038633     1.6285851196
    6      C      -1.0563669234     0.5208272078     3.5412108326
    7      H      -1.9220452490     0.8756388116     4.0813213236
    8      C       0.0736676302     0.0876959394     4.2267620340
    9      H       0.0888715689     0.0990893366     5.3074651289
   10      C       1.1886568272    -0.3632481846     3.5301697393
   11      H       2.0437652888    -0.7079939697     4.0922536066
   12      C       1.2133609503    -0.3841316410     2.1490895484
   13      C       1.2466785481     0.4841401037    -1.9869739238
   14      H       0.3361630920     0.7544167872    -2.4984737598
   15      C       2.4380316523     0.5572342962    -2.6643847877
   16      H       2.4375376807     0.8904719448    -3.6917077292
   17      C       3.6248681396     0.2165368350    -2.0242266156
   18      H       4.5657231053     0.2847920131    -2.5518885277
   19      C       3.6061834283    -0.2369343833    -0.7095790191
   20      H       4.5377905871    -0.5387779093    -0.2549944310
   21      C       2.4289231007    -0.3201511400     0.0054276671
   22      C      -1.2001960568     0.1770171312    -0.5860225255
   23      C      -1.6304523975     1.3206249160    -1.2167574949
   24      H      -1.0178657743     2.2123818687    -1.1712806495
   25      C      -1.9680605274    -0.9775425100    -0.5986343120
   26      H      -1.6310619828    -1.8831476927    -0.1108297040
   27      C      -3.1831628889    -0.9292518289    -1.2413566196
   28      H      -3.8135858918    -1.8093078061    -1.2320770918
   29      C      -2.8273101142     1.3488461209    -1.9415503973
   30      C      -3.6402832487     0.2126610664    -1.9083654026
   31      C      -5.0287524405     0.1654410026    -2.4784599598
   32      H      -5.5328800083    -0.7107440376    -2.0651428929
   33      H      -4.9996600828     0.0212951122    -3.5612615915
   34      C       2.3303260331    -1.0032166312     1.3472640490
   35      C       3.6564086145    -1.0110990860     2.1007326239
   36      H       4.4278329950    -1.5226941616     1.5278559535
   37      H       3.5705035289    -1.5655009528     3.0333713777
   38      H       4.0031972177    -0.0030614301     2.3259884929
   39      C      -5.8218691747     1.4348714362    -2.1620796145
   40      H      -6.8852565473     1.1945250761    -2.1182857044
   41      H      -5.5534125796     1.7750262401    -1.1534006419
   42      C      -5.5981255515     2.4684591510    -3.2199458575
   43      C      -6.6740948272     2.9565183223    -3.9095341284
   44      H      -7.6705489405     2.6800184102    -3.5836808269
   45      C      -6.5652003669     3.7658459932    -5.0552368457
   46      C      -7.7187995825     4.2349005766    -5.6946747272
   47      N      -8.6913893062     4.6073302579    -6.2095673294
   48      C      -5.2332860237     4.0341548270    -5.5363666547
   49      C      -4.1456147083     3.5539634844    -4.8072718382
   50      H      -3.1678522862     3.8316868758    -5.1754377033
   51      C      -4.2653284588     2.7862924953    -3.6643481206
   52      C      -4.9906285926     4.7664507591    -6.7133936076
   53      N      -4.7668425038     5.3693838863    -7.6778284994
   54      C      -3.0353641717     2.6264926456    -2.7744831315
   55      C      -1.7612340599     2.7708091872    -3.5932328896
   56      C      -1.3074825618     1.9233260883    -4.5853627419
   57      H      -1.8876009154     1.0546922340    -4.8731689445
   58      C      -0.1255872876     2.2398844430    -5.2436082567
   59      H       0.2287404557     1.6074900962    -6.0476670083
   60      C       0.5839493559     3.3881832080    -4.9025961749
   61      H       1.4912043690     3.6353204599    -5.4387104575
   62      C       0.1251980500     4.2361584980    -3.9039179039
   63      H       0.6736669160     5.1373160109    -3.6598197024
   64      C      -1.0568638851     3.9215982901    -3.2475620235
   65      C      -1.7935358804     4.6087416791    -2.1896070437
   66      C      -1.5409178173     5.8038103347    -1.5362185214
   67      H      -0.6707743865     6.3999463896    -1.7823541108
   68      C      -2.4357876748     6.2372809260    -0.5679701916
   69      H      -2.2614903219     7.1737457366    -0.0550880209
   70      C      -3.5663145040     5.4857276192    -0.2656879540
   71      H      -4.2643669127     5.8467097440     0.4784219818
   72      C      -3.8216764102     4.2890419224    -0.9212283162
   73      H      -4.7215388358     3.7289612395    -0.7030556402
   74      C      -2.9287517452     3.8536786961    -1.8819029042
   75      C       1.9191419203    -2.4743723589     1.0630044127
   76      H       2.6819953466    -2.9657241468     0.4590728465
   77      H       1.8119764025    -3.0197572568     2.0006921490
   78      H       0.9739756865    -2.5412877833     0.5237898226
 ----------------------------------------------------------------

    8   -1855.5187147355      4.55e-09  Convergence criterion met
 Total energy in the final basis set =    -1855.5187147355

         TDDFT/TDA Excitation Energies
 ---------------------------------------------------

 Excited state   1: excitation energy (eV) =    3.1580
 Total energy for state  1:                 -1855.40266003 au
    Multiplicity: Singlet
    Trans. Mom.:  0.1018 X  -0.0718 Y   0.0940 Z
    Strength   :     0.0018843881
    D(158) --> V(  1) amplitude =  0.9975

 Excited state   2: excitation energy (eV) =    3.9658
 Total energy for state  2:                 -1855.37297391 au
    Multiplicity: Singlet
    Trans. Mom.: -0.0121 X   0.0466 Y  -0.0700 Z
    Strength   :     0.0007023910
    D(158) --> V(  2) amplitude =  0.9583
    D(158) --> V(  3) amplitude =  0.2325

 Excited state   3: excitation energy (eV) =    4.0185
 Total energy for state  3:                 -1855.37103799 au
    Multiplicity: Singlet
    Trans. Mom.: -0.4487 X  -0.0603 Y  -0.2313 Z
    Strength   :     0.0254455914
    D(157) --> V(  1) amplitude = -0.9862

 ---------------------------------------------------

 Final energy is   -1855.40266003490
 **  OPTIMIZATION CONVERGED  **

                    Orbital Energies (a.u.)
 --------------------------------------------------------------

 Alpha MOs
 -- Occupied --
-14.680 -14.663 -14.659 -10.529 -10.527 -10.512 -10.511 -10.505
-10.504 -10.501 -10.501 -10.496 -10.493 -10.491 -10.490 -10.488
-10.480 -10.478 -10.477 -10.477 -10.475 -10.475 -10.470 -10.469
-10.469 -10.468 -10.468 -10.468 -10.467 -10.467 -10.466 -10.465
-10.465 -10.464 -10.463 -10.450 -10.449 -10.443 -10.443 -10.441
-10.441 -10.439 -10.436 -10.436 -10.433 -10.430 -10.427  -1.097
 -1.041  -1.030  -1.019  -1.002  -0.988  -0.970  -0.960  -0.956
 -0.938  -0.935  -0.909  -0.901  -0.892  -0.885  -0.860  -0.858
 -0.848  -0.847  -0.835  -0.827  -0.819  -0.809  -0.795  -0.777
 -0.772  -0.748  -0.732  -0.727  -0.714  -0.713  -0.705  -0.691
 -0.683  -0.679  -0.674  -0.669  -0.666  -0.646  -0.617  -0.615
 -0.613  -0.611  -0.599  -0.587  -0.583  -0.572  -0.567  -0.563
 -0.541  -0.539  -0.536  -0.534  -0.531  -0.528  -0.524  -0.520
 -0.518  -0.512  -0.510  -0.504  -0.504  -0.500  -0.497  -0.493
 -0.490  -0.488  -0.486  -0.485  -0.472  -0.468  -0.462  -0.452
 -0.449  -0.445  -0.442  -0.441  -0.439  -0.438  -0.436  -0.433
 -0.430  -0.428  -0.427  -0.422  -0.421  -0.418  -0.415  -0.412
 -0.411  -0.402  -0.401  -0.399  -0.398  -0.395  -0.393  -0.376
 -0.374  -0.364  -0.351  -0.337  -0.325  -0.314  -0.305  -0.305
 -0.299  -0.289  -0.286  -0.281  -0.272  -0.220

          Ground-State Mulliken Net Atomic Charges

     Atom                 Charge (a.u.)
  ----------------------------------------
      1 N                    -0.697798
      2 C                     0.305082
      3 C                     0.314126
      4 C                    -0.286406
      5 H                     0.243936
      6 C                    -0.231596
      7 H                     0.214447
      8 C                    -0.225774
      9 H                     0.210510
     10 C                    -0.321288
     11 H                     0.210656
     12 C                     0.170588
     13 C                    -0.307168
     14 H                     0.270346
     15 C                    -0.228299
     16 H                     0.212814
     17 C                    -0.229177
     18 H                     0.207556
     19 C                    -0.316177
     20 H                     0.210483
     21 C                     0.155833
     22 C                     0.201127
     23 C                    -0.293609
     24 H                     0.286327
     25 C                    -0.205643
     26 H                     0.240407
     27 C                    -0.302887
     28 H                     0.219063
     29 C                     0.229741
     30 C                     0.062996
     31 C                    -0.520317
     32 H                     0.249410
     33 H                     0.253743
     34 C                    -0.239433
     35 C                    -0.653670
     36 H                     0.225862
     37 H                     0.225216
     38 H                     0.241525
     39 C                    -0.541252
     40 H                     0.252891
     41 H                     0.257061
     42 C                     0.145353
     43 C                    -0.317428
     44 H                     0.246519
     45 C                     0.074129
     46 C                    -0.005336
     47 N                    -0.158701
     48 C                     0.081944
     49 C                    -0.285148
     50 H                     0.281798
     51 C                     0.151869
     52 C                    -0.005551
     53 N                    -0.158757
     54 C                    -0.417362
     55 C                     0.020312
     56 C                    -0.251941
     57 H                     0.229889
     58 C                    -0.240464
     59 H                     0.232731
     60 C                    -0.210688
     61 H                     0.231690
     62 C                    -0.329226
     63 H                     0.215793
     64 C                     0.165403
     65 C                     0.131802
     66 C                    -0.320559
     67 H                     0.214812
     68 C                    -0.216553
     69 H                     0.230437
     70 C                    -0.221075
     71 H                     0.227701
     72 C                    -0.278603
     73 H                     0.215097
     74 C                     0.171959
     75 C                    -0.591625
     76 H                     0.222622
     77 H                     0.219285
     78 H                     0.226622
  ----------------------------------------
  Sum of atomic charges =    -0.000000

                    Cartesian Multipole Moments
 -----------------------------------------------------------------
    Charge (ESU x 10^10)
                -0.0000
    Dipole Moment (Debye)
         X       2.3358      Y      -3.6557      Z       5.2179
       Tot       6.7858
    Quadrupole Moments (Debye-Ang)
        XX    -289.4033     XY      37.1300     YY    -286.4685
        XZ     -53.6613     YZ      43.5044     ZZ    -321.7368

 Total job time:  77918.21s(wall), 560732.16s(cpu)
        *  Thank you very much for using Q-Chem.  Have a nice day.  *
