 Q-Chem 5.0, Q-Chem, Inc., Pleasanton, CA (2017)
 Q-Chem 5.0.1 for Intel X86 EM64T Linux

User input:
--------------------------------------------------------------
$rem
threads 8
jobtype	sp
method PBEh-3c
basis def2-mSVP
mem_static	1024
mem_total	14000
sym_ignore	true
cis_n_roots             6
cis_singlets            true
cis_triplets		true
rpa                     false
calc_soc 		true
cis_moments             true
cis_relaxed_density	true
$end

$molecule
read t1opt.mol
$end

--------------------------------------------------------------

             Standard Nuclear Orientation (Angstroms)
    I     Atom           X                Y                Z
 ----------------------------------------------------------------
    1      N       0.0000000000     0.0000000000     0.0000000000
    2      C       0.0000000000     0.0000000000     1.3974820000
    3      C       1.1926795283     0.0000000000     2.1192638319
    4      H       2.1436300358     0.0178289612     1.6050895546
    5      C       1.1670676657    -0.0359091901     3.5025698265
    6      H       2.1004746997    -0.0352571567     4.0502199978
    7      C      -0.0402015487    -0.0901612932     4.1769527443
    8      H      -0.0658719379    -0.1315792315     5.2574995927
    9      C      -1.2232245737    -0.0745516461     3.4535659711
   10      H      -2.1602383149    -0.0947217102     3.9929886220
   11      C      -1.2283340694    -0.0052871431     2.0677842975
   12      C      -1.0785149489    -0.5778491965    -0.6826743546
   13      C      -0.9414538670    -1.1156997363    -1.9612070040
   14      H       0.0018359629    -1.0701745081    -2.4860196587
   15      C      -2.0165353978    -1.7332297084    -2.5758121638
   16      H      -1.8841810157    -2.1519940487    -3.5649833149
   17      C      -3.2340585613    -1.8297238118    -1.9257497739
   18      H      -4.0727564966    -2.3267886336    -2.3942241514
   19      C      -3.3759719086    -1.2596051559    -0.6698474047
   20      H      -4.3400804332    -1.3114990150    -0.1832402011
   21      C      -2.3251680009    -0.6052677088    -0.0427809817
   22      C       1.2036658806     0.2994133407    -0.6821263973
   23      C       2.0460443323    -0.7056423562    -1.1099054466
   24      H       1.7563083373    -1.7251177444    -0.8890769318
   25      C       1.5483959631     1.6202553910    -0.9262557556
   26      H       0.9024729184     2.4219871979    -0.5930798108
   27      C       2.7344447853     1.8870293884    -1.5754711617
   28      H       3.0252203428     2.9184607556    -1.7350079221
   29      C       3.5797379385     0.8768696237    -2.0431670388
   30      C       3.2126301167    -0.4547278340    -1.8390701112
   31      C       4.8728408070     1.3115111295    -2.6713822221
   32      H       5.0534173504     2.3510383904    -2.3924354935
   33      H       4.8132417860     1.3028761984    -3.7638376398
   34      C      -2.4816305415     0.1920970945     1.2397470171
   35      C      -3.7451655065    -0.1768502447     2.0091011148
   36      H      -4.6357225853     0.0012242145     1.4069835222
   37      H      -3.8539864684     0.4456389280     2.8972133984
   38      H      -3.7441482279    -1.2216280504     2.3216265894
   39      C       6.0553641830     0.4597360287    -2.2187667259
   40      H       6.9771603348     1.0376554843    -2.2972996075
   41      H       5.9435478569     0.2112773065    -1.1602435995
   42      C       6.1801520673    -0.7662545822    -3.0709105189
   43      C       7.3541927646    -0.9208367733    -3.7987188105
   44      H       8.1494504339    -0.1974540060    -3.6736385224
   45      C       7.5393627449    -1.9638079270    -4.6908365330
   46      C       6.5016270033    -2.8802993335    -4.8664231081
   47      C       5.3299186311    -2.7307192939    -4.1409706376
   48      H       4.5505712099    -3.4623012664    -4.2950435279
   49      C       5.1389159387    -1.6883021995    -3.2343883986
   50      C       8.7645312141    -2.0699044931    -5.4114413828
   51      N       9.7638423905    -2.1296199384    -5.9793195665
   52      C       6.6297172373    -3.9660192380    -5.7816386951
   53      N       6.7199961281    -4.8454596102    -6.5183088596
   54      C       3.8507774029    -1.7348596650    -2.4030502983
   55      C       4.1007117022    -2.7585660484    -1.2946358080
   56      C       4.9464553729    -2.6668905857    -0.2329608196
   57      H       5.5441760547    -1.7787467115    -0.0696446786
   58      C       5.0442968775    -3.7499099876     0.6624873713
   59      H       5.7156633654    -3.6919387133     1.5070737275
   60      C       4.2699270740    -4.9224876667     0.4597414812
   61      H       4.3713087752    -5.7405692211     1.1603458161
   62      C       3.4071521775    -5.0348416760    -0.5889539093
   63      H       2.8195569991    -5.9314883281    -0.7313844687
   64      C       3.2861931186    -3.9384021404    -1.5053977687
   65      C       2.4678267492    -3.7453070210    -2.6033869243
   66      C       1.4476851196    -4.5616051122    -3.1938290314
   67      H       1.2182088103    -5.5339039444    -2.7798954537
   68      C       0.7652583318    -4.0819681505    -4.2727458872
   69      H      -0.0109238856    -4.6845106358    -4.7254888410
   70      C       1.0446108351    -2.8038616032    -4.8216461016
   71      H       0.4909363479    -2.4575834214    -5.6827427156
   72      C       2.0456179558    -1.9889279113    -4.2567683922
   73      H       2.2478928375    -1.0098874016    -4.6744769761
   74      C       2.7433101652    -2.4491465220    -3.1819119654
   75      C      -2.5712937802     1.6880123529     0.8679585231
   76      H      -1.6959512037     2.0215084129     0.3115993802
   77      H      -3.4507499961     1.8763423924     0.2497485381
   78      H      -2.6453643506     2.2980235810     1.7700262920
 ----------------------------------------------------------------

   15   -1855.5173211235      8.02E-09 Convergence criterion met
 Total energy in the final basis set = -1855.51732112

         TDDFT/TDA Excitation Energies
 ---------------------------------------------------

 Excited state   1: excitation energy (eV) =    2.6128
 Total energy for state  1:                 -1855.42130309 au
    Multiplicity: Triplet
    Trans. Mom.:  0.0000 X   0.0000 Y   0.0000 Z
    Strength   :     0.0000000000
    D(157) --> V(  1) amplitude = -0.2508
    D(157) --> V(  2) amplitude =  0.8802
    D(157) --> V(  3) amplitude = -0.2402

 Excited state   2: excitation energy (eV) =    3.4276
 Total energy for state  2:                 -1855.39135886 au
    Multiplicity: Triplet
    Trans. Mom.:  0.0000 X   0.0000 Y   0.0000 Z
    Strength   :     0.0000000000
    D(148) --> V(  1) amplitude = -0.2570
    D(149) --> V(  3) amplitude =  0.2720
    D(150) --> V(  1) amplitude =  0.3146
    D(151) --> V(  1) amplitude =  0.6687
    D(157) --> V(  1) amplitude =  0.3274

 Excited state   3: excitation energy (eV) =    3.7476
 Total energy for state  3:                 -1855.37959893 au
    Multiplicity: Triplet
    Trans. Mom.:  0.0000 X   0.0000 Y   0.0000 Z
    Strength   :     0.0000000000
    D(158) --> V(  1) amplitude =  0.5577
    D(158) --> V(  2) amplitude = -0.4375
    D(158) --> V(  8) amplitude =  0.4363
    D(158) --> V(  9) amplitude =  0.2976

 Excited state   4: excitation energy (eV) =    3.7622
 Total energy for state  4:                 -1855.37906137 au
    Multiplicity: Singlet
    Trans. Mom.: -0.0573 X   0.0427 Y   0.0708 Z
    Strength   :     0.0009328536
    D(158) --> V(  1) amplitude =  0.7774
    D(158) --> V(  2) amplitude = -0.6201

 Excited state   5: excitation energy (eV) =    3.7738
 Total energy for state  5:                 -1855.37863571 au
    Multiplicity: Triplet
    Trans. Mom.:  0.0000 X   0.0000 Y   0.0000 Z
    Strength   :     0.0000000000
    D(158) --> V(  1) amplitude =  0.5411
    D(158) --> V(  2) amplitude = -0.4368
    D(158) --> V(  8) amplitude = -0.4679
    D(158) --> V(  9) amplitude = -0.3048

 Excited state   6: excitation energy (eV) =    3.8445
 Total energy for state  6:                 -1855.37603921 au
    Multiplicity: Triplet
    Trans. Mom.:  0.0000 X   0.0000 Y   0.0000 Z
    Strength   :     0.0000000000
    D(149) --> V(  1) amplitude = -0.2347
    D(152) --> V(  6) amplitude =  0.2208
    D(157) --> V(  1) amplitude =  0.5878
    D(157) --> V(  4) amplitude =  0.3045

 Excited state   7: excitation energy (eV) =    3.8649
 Total energy for state  7:                 -1855.37528755 au
    Multiplicity: Triplet
    Trans. Mom.:  0.0000 X   0.0000 Y   0.0000 Z
    Strength   :     0.0000000000
    D(152) --> V(  6) amplitude = -0.2603
    D(157) --> V(  1) amplitude =  0.3743
    D(157) --> V(  5) amplitude =  0.2692
    D(158) --> V(  1) amplitude =  0.3358
    D(158) --> V(  2) amplitude =  0.4097

 Excited state   8: excitation energy (eV) =    3.8854
 Total energy for state  8:                 -1855.37453434 au
    Multiplicity: Singlet
    Trans. Mom.: -0.0988 X   0.0089 Y   0.0623 Z
    Strength   :     0.0013069836
    D(158) --> V(  1) amplitude =  0.6227
    D(158) --> V(  2) amplitude =  0.7728

 Excited state   9: excitation energy (eV) =    3.9967
 Total energy for state  9:                 -1855.37044491 au
    Multiplicity: Singlet
    Trans. Mom.: -0.8328 X  -0.0804 Y  -0.0526 Z
    Strength   :     0.0688162426
    D(157) --> V(  1) amplitude =  0.9754

 Excited state  10: excitation energy (eV) =    4.2637
 Total energy for state 10:                 -1855.36063383 au
    Multiplicity: Singlet
    Trans. Mom.:  0.9528 X  -0.4438 Y   1.2470 Z
    Strength   :     0.2778296259
    D(157) --> V(  2) amplitude =  0.9339

 Excited state  11: excitation energy (eV) =    4.3602
 Total energy for state 11:                 -1855.35708708 au
    Multiplicity: Singlet
    Trans. Mom.:  0.2470 X  -0.0936 Y  -0.2920 Z
    Strength   :     0.0165638883
    D(158) --> V(  3) amplitude =  0.6174
    D(158) --> V(  5) amplitude =  0.5711
    D(158) --> V(  6) amplitude = -0.4634

 Excited state  12: excitation energy (eV) =    4.4277
 Total energy for state 12:                 -1855.35460729 au
    Multiplicity: Singlet
    Trans. Mom.: -0.1647 X  -0.0798 Y   0.1368 Z
    Strength   :     0.0056647522
    D(158) --> V(  4) amplitude = -0.8206
    D(158) --> V(  6) amplitude =  0.4785

 ---------------------------------------------------

                    Orbital Energies (a.u.)
 --------------------------------------------------------------

 Alpha MOs
 -- Occupied --
-14.679 -14.657 -14.655 -10.522 -10.521 -10.513 -10.508 -10.501
-10.500 -10.498 -10.498 -10.493 -10.491 -10.490 -10.490 -10.488
-10.482 -10.481 -10.481 -10.479 -10.478 -10.475 -10.472 -10.471
-10.470 -10.470 -10.470 -10.469 -10.469 -10.469 -10.467 -10.466
-10.464 -10.463 -10.463 -10.451 -10.451 -10.444 -10.444 -10.443
-10.442 -10.442 -10.439 -10.437 -10.436 -10.430 -10.426  -1.091
 -1.042  -1.028  -1.020  -1.003  -0.987  -0.961  -0.960  -0.957
 -0.938  -0.932  -0.911  -0.898  -0.891  -0.886  -0.861  -0.859
 -0.848  -0.847  -0.834  -0.819  -0.813  -0.809  -0.797  -0.773
 -0.772  -0.746  -0.737  -0.725  -0.714  -0.713  -0.702  -0.691
 -0.679  -0.677  -0.671  -0.668  -0.667  -0.645  -0.619  -0.613
 -0.612  -0.609  -0.600  -0.586  -0.581  -0.573  -0.567  -0.563
 -0.543  -0.539  -0.538  -0.533  -0.532  -0.525  -0.522  -0.520
 -0.517  -0.509  -0.506  -0.503  -0.502  -0.500  -0.497  -0.494
 -0.492  -0.490  -0.486  -0.484  -0.474  -0.469  -0.459  -0.450
 -0.447  -0.443  -0.440  -0.439  -0.437  -0.436  -0.435  -0.433
 -0.428  -0.427  -0.425  -0.424  -0.419  -0.418  -0.415  -0.413
 -0.410  -0.403  -0.399  -0.398  -0.397  -0.396  -0.392  -0.379
 -0.374  -0.362  -0.349  -0.340  -0.323  -0.318  -0.308  -0.305
 -0.300  -0.291  -0.287  -0.280  -0.257  -0.230

          Ground-State Mulliken Net Atomic Charges

     Atom                 Charge (a.u.)
  ----------------------------------------
      1 N                    -0.713794
      2 C                     0.312471
      3 C                    -0.283274
      4 H                     0.240432
      5 C                    -0.235538
      6 H                     0.214353
      7 C                    -0.218058
      8 H                     0.212153
      9 C                    -0.326952
     10 H                     0.213304
     11 C                     0.170281
     12 C                     0.314481
     13 C                    -0.296204
     14 H                     0.266987
     15 C                    -0.234412
     16 H                     0.211663
     17 C                    -0.218561
     18 H                     0.210455
     19 C                    -0.326219
     20 H                     0.212563
     21 C                     0.160893
     22 C                     0.225861
     23 C                    -0.290482
     24 H                     0.283458
     25 C                    -0.232692
     26 H                     0.234485
     27 C                    -0.297877
     28 H                     0.219700
     29 C                     0.059321
     30 C                     0.219703
     31 C                    -0.515223
     32 H                     0.247558
     33 H                     0.253212
     34 C                    -0.229670
     35 C                    -0.664728
     36 H                     0.228167
     37 H                     0.227310
     38 H                     0.238823
     39 C                    -0.544765
     40 H                     0.252403
     41 H                     0.256431
     42 C                     0.106303
     43 C                    -0.320072
     44 H                     0.246317
     45 C                     0.078911
     46 C                     0.092458
     47 C                    -0.295835
     48 H                     0.282987
     49 C                     0.213326
     50 C                    -0.006888
     51 N                    -0.153728
     52 C                    -0.008949
     53 N                    -0.154357
     54 C                    -0.417947
     55 C                     0.155971
     56 C                    -0.283237
     57 H                     0.216116
     58 C                    -0.230393
     59 H                     0.229918
     60 C                    -0.207500
     61 H                     0.229673
     62 C                    -0.297185
     63 H                     0.215096
     64 C                     0.108204
     65 C                     0.143783
     66 C                    -0.302050
     67 H                     0.216508
     68 C                    -0.201049
     69 H                     0.230694
     70 C                    -0.249142
     71 H                     0.233190
     72 C                    -0.265319
     73 H                     0.230816
     74 C                     0.028124
     75 C                    -0.595711
     76 H                     0.231701
     77 H                     0.221444
     78 H                     0.219806
  ----------------------------------------
  Sum of atomic charges =    -0.000000

                    Cartesian Multipole Moments
 -----------------------------------------------------------------
    Charge (ESU x 10^10)
                -0.0000
    Dipole Moment (Debye)
         X      -4.1602      Y       3.6684      Z       4.9440
       Tot       7.4302
    Quadrupole Moments (Debye-Ang)
        XX    -319.6789     XY      43.1519     YY    -273.7354
        XZ      62.6345     YZ     -32.7677     ZZ    -308.6213

 Total job time:  5790.13s(wall), 31266.50s(cpu)
        *  Thank you very much for using Q-Chem.  Have a nice day.  *
