 Q-Chem 5.0, Q-Chem, Inc., Pleasanton, CA (2017)
 Q-Chem 5.0.1 for Intel X86 EM64T Linux

User input:
--------------------------------------------------------------
$rem
threads 8
jobtype	opt
method PBEh-3c
basis def2-mSVP
mem_static	1024
mem_total	14000
sym_ignore	true
cis_n_roots             2
cis_singlets            false
cis_triplets		true
rpa                     false
cis_state_deriv         1
$end

$molecule
read t1pre.mol
$end

--------------------------------------------------------------

   15   -1855.5170984680      8.00E-09 Convergence criterion met
 Total energy in the final basis set = -1855.51709847
   11   -1855.5169819651      5.60E-09 Convergence criterion met
 Total energy in the final basis set = -1855.51698197
   10   -1855.5170715301      9.12E-09 Convergence criterion met
 Total energy in the final basis set = -1855.51707153
   10   -1855.5170707698      5.64E-09 Convergence criterion met
 Total energy in the final basis set = -1855.51707077
   10   -1855.5170602095      3.64E-09 Convergence criterion met
 Total energy in the final basis set = -1855.51706021

             Standard Nuclear Orientation (Angstroms)
    I     Atom           X                Y                Z
 ----------------------------------------------------------------
    1      C       0.1216520911    -4.5922121483     1.0592652620
    2      C      -0.0209801681    -4.4375896146     2.5741159061
    3      C       1.5825482172    -4.1699411176     0.8838027992
    4      C       2.3231288818    -4.1729648745    -0.2587479169
    5      H       1.8928906626    -4.4919838222    -1.2005749983
    6      C       3.6687233328    -3.7589834992    -0.2020674165
    7      H       4.2657032042    -3.7439717145    -1.1028127142
    8      C       4.2429670735    -3.3516488129     1.0296831200
    9      H       5.2794248618    -3.0417180064     1.0434898840
   10      C       3.5220536522    -3.3450172837     2.1872930431
   11      H       3.9749379827    -3.0408373633     3.1209606904
   12      C       2.1520052281    -3.7660001194     2.1499650932
   13      C      -1.0949012872    -4.7282718946     3.3570824329
   14      H      -2.0005204899    -5.1429480987     2.9320649118
   15      C      -1.0224395778    -4.4798524670     4.7417728128
   16      H      -1.8699163135    -4.7017440382     5.3742016556
   17      C       0.1565928167    -3.9330729566     5.3132686110
   18      H       0.1803543784    -3.7468814149     6.3787032557
   19      C       1.2497850424    -3.6439497957     4.5529367909
   20      H       2.1438939205    -3.2310891989     4.9997544598
   21      C       1.1985559692    -3.8997641805     3.1427546856
   22      C      -2.1232556120    -3.7790680920     0.0059802404
   23      C      -2.9085551368    -2.7108454944    -0.4113636314
   24      H      -3.9175820435    -2.9019593053    -0.7529799670
   25      C      -2.4409146717    -1.4073031396    -0.4177774728
   26      C      -3.2915941875    -0.3522037609    -0.8589971499
   27      N      -4.0008691336     0.4788415343    -1.2208908952
   28      C      -0.8115530078    -3.5458065475     0.4373679241
   29      C      -0.3453474162    -2.2315199438     0.4197265467
   30      H       0.6605299807    -2.0106941239     0.7449658268
   31      C      -1.1310843776    -1.1690934709     0.0008916463
   32      C      -0.5905866954     0.1502529382     0.0022951405
   33      N      -0.1420983444     1.2100121722     0.0065351222
   34      H       5.6810152604    -6.2763448622     0.2401126884
   35      H       7.3681258118    -7.8492780631     1.1731895493
   36      C       5.3726059929    -7.1941504924     0.7237012201
   37      C       6.3112207896    -8.0689626408     1.2413507932
   38      C       4.0212857034    -7.4708204756     0.8344746501
   39      H       3.3107488838    -6.7611371955     0.4359981469
   40      C       5.8821514025    -9.2479601935     1.8315461439
   41      H       6.6239479022    -9.9406996394     2.2041504209
   42      C       3.5937615952    -8.6391643923     1.4628931671
   43      C       4.5352545668    -9.5677172206     1.9273725469
   44      N       2.2356132845    -8.9273509767     1.6513872884
   45      C       2.7631531130   -10.6944128779     3.1953302844
   46      C       1.8544481165    -9.7417540276     2.7211611132
   47      H       3.0979907003   -12.1855504255     4.6944128070
   48      C       2.4064518066   -11.4532642903     4.3008268024
   49      C       0.5996475310    -9.6132294931     3.3148016484
   50      C       1.1655939589   -11.3196687562     4.9053926038
   51      C       0.2584453127   -10.4071186623     4.3959129019
   52      H      -0.1102677222    -8.8876728233     2.9425280849
   53      H       0.9090739909   -11.9334587037     5.7582786968
   54      H      -0.7191236287   -10.2969314787     4.8468988019
   55      C       4.0271672355   -10.9210970565     2.3914400334
   56      C       5.0755619781   -11.7041748620     3.1738751657
   57      C       3.6507957761   -11.7474025278     1.1426029913
   58      C       1.2424375287    -8.1761113741     0.9783374818
   59      C       0.5111544491    -8.7595697086    -0.0453146436
   60      C      -0.4632114316    -8.0137650283    -0.6728074633
   61      C      -0.7091011551    -6.6755865560    -0.3526506610
   62      C       0.0569573463    -6.0719002988     0.6464955561
   63      C       0.9863443995    -6.8659553682     1.3256706670
   64      H       1.5629260141    -6.4453963624     2.1397503735
   65      H       0.6945395846    -9.7879904787    -0.3276563625
   66      H      -1.0618867978    -8.4775699197    -1.4476142129
   67      C      -1.8466944120    -6.0051347519    -1.0682340587
   68      C      -2.7017381321    -5.1540651116    -0.1337163206
   69      H      -2.4702340251    -6.7806332841    -1.5163820069
   70      H      -1.4926431101    -5.3901500822    -1.9010160819
   71      H      -2.7987036831    -5.6560477605     0.8323667110
   72      H      -3.7132788662    -5.0708531712    -0.5333748777
   73      H       2.9018492526   -11.2434499105     0.5326110746
   74      H       3.2431952325   -12.7156724964     1.4386447297
   75      H       4.5293481619   -11.9181741223     0.5180403860
   76      H       5.3786548975   -11.1862372118     4.0844293643
   77      H       5.9633920677   -11.8825683917     2.5678383085
   78      H       4.6979434840   -12.6886678182     3.4500187873
 ----------------------------------------------------------------

    8   -1855.5170602852      8.09E-09 Convergence criterion met
 Total energy in the final basis set = -1855.51706029

         TDDFT/TDA Excitation Energies
 ---------------------------------------------------

 Excited state   1: excitation energy (eV) =    2.6130
 Total energy for state  1:                 -1855.42103595 au
    Multiplicity: Triplet
    Trans. Mom.:  0.0000 X   0.0000 Y   0.0000 Z
    Strength   :     0.0000000000
    D(157) --> V(  1) amplitude = -0.2507
    D(157) --> V(  2) amplitude =  0.8801
    D(157) --> V(  3) amplitude = -0.2402

 Excited state   2: excitation energy (eV) =    3.4277
 Total energy for state  2:                 -1855.39109536 au
    Multiplicity: Triplet
    Trans. Mom.:  0.0000 X   0.0000 Y   0.0000 Z
    Strength   :     0.0000000000
    D(148) --> V(  1) amplitude =  0.2572
    D(149) --> V(  3) amplitude =  0.2718
    D(150) --> V(  1) amplitude =  0.3144
    D(151) --> V(  1) amplitude = -0.6692
    D(157) --> V(  1) amplitude = -0.3269

 ---------------------------------------------------

 Final energy is   -1855.42103595134
 **  OPTIMIZATION CONVERGED  **

                    Orbital Energies (a.u.)
 --------------------------------------------------------------

 Alpha MOs
 -- Occupied --
-14.679 -14.657 -14.655 -10.522 -10.521 -10.513 -10.508 -10.501
-10.500 -10.498 -10.498 -10.493 -10.491 -10.490 -10.490 -10.488
-10.482 -10.481 -10.481 -10.479 -10.478 -10.475 -10.472 -10.471
-10.470 -10.470 -10.470 -10.469 -10.469 -10.468 -10.467 -10.466
-10.464 -10.463 -10.463 -10.451 -10.451 -10.444 -10.444 -10.443
-10.442 -10.442 -10.439 -10.437 -10.436 -10.430 -10.426  -1.091
 -1.042  -1.028  -1.020  -1.003  -0.987  -0.961  -0.960  -0.957
 -0.938  -0.932  -0.911  -0.898  -0.891  -0.886  -0.861  -0.859
 -0.848  -0.847  -0.834  -0.819  -0.813  -0.809  -0.797  -0.773
 -0.772  -0.746  -0.737  -0.725  -0.714  -0.713  -0.702  -0.691
 -0.678  -0.677  -0.671  -0.668  -0.667  -0.645  -0.619  -0.613
 -0.612  -0.609  -0.600  -0.586  -0.581  -0.573  -0.567  -0.563
 -0.543  -0.539  -0.538  -0.533  -0.532  -0.525  -0.522  -0.520
 -0.517  -0.509  -0.506  -0.503  -0.502  -0.500  -0.497  -0.494
 -0.492  -0.490  -0.486  -0.484  -0.474  -0.469  -0.459  -0.450
 -0.447  -0.443  -0.440  -0.439  -0.437  -0.436  -0.435  -0.433
 -0.428  -0.427  -0.425  -0.424  -0.419  -0.418  -0.415  -0.413
 -0.410  -0.403  -0.399  -0.398  -0.397  -0.396  -0.392  -0.379
 -0.374  -0.362  -0.349  -0.340  -0.323  -0.318  -0.308  -0.305
 -0.300  -0.291  -0.287  -0.280  -0.257  -0.230

          Ground-State Mulliken Net Atomic Charges

     Atom                 Charge (a.u.)
  ----------------------------------------
      1 C                    -0.417927
      2 C                     0.156052
      3 C                     0.028451
      4 C                    -0.265488
      5 H                     0.230790
      6 C                    -0.249088
      7 H                     0.233239
      8 C                    -0.201205
      9 H                     0.230678
     10 C                    -0.302024
     11 H                     0.216525
     12 C                     0.144208
     13 C                    -0.283654
     14 H                     0.216066
     15 C                    -0.230356
     16 H                     0.229886
     17 C                    -0.207364
     18 H                     0.229652
     19 C                    -0.297526
     20 H                     0.215054
     21 C                     0.108353
     22 C                     0.106283
     23 C                    -0.320010
     24 H                     0.246320
     25 C                     0.079051
     26 C                    -0.006893
     27 N                    -0.153741
     28 C                     0.213639
     29 C                    -0.295979
     30 H                     0.283044
     31 C                     0.092256
     32 C                    -0.008899
     33 N                    -0.154419
     34 H                     0.211649
     35 H                     0.210458
     36 C                    -0.234293
     37 C                    -0.218576
     38 C                    -0.296311
     39 H                     0.266905
     40 C                    -0.326208
     41 H                     0.212507
     42 C                     0.314607
     43 C                     0.160525
     44 N                    -0.713848
     45 C                     0.169703
     46 C                     0.312936
     47 H                     0.213316
     48 C                    -0.326819
     49 C                    -0.283515
     50 C                    -0.217926
     51 C                    -0.235604
     52 H                     0.240430
     53 H                     0.212185
     54 H                     0.214347
     55 C                    -0.228843
     56 C                    -0.665032
     57 C                    -0.596074
     58 C                     0.225729
     59 C                    -0.232512
     60 C                    -0.297967
     61 C                     0.058961
     62 C                     0.219676
     63 C                    -0.290582
     64 H                     0.283562
     65 H                     0.234508
     66 H                     0.219707
     67 C                    -0.514941
     68 C                    -0.544885
     69 H                     0.247544
     70 H                     0.253234
     71 H                     0.256415
     72 H                     0.252400
     73 H                     0.231765
     74 H                     0.219872
     75 H                     0.221513
     76 H                     0.238858
     77 H                     0.228226
     78 H                     0.227423
  ----------------------------------------
  Sum of atomic charges =    -0.000000

                    Cartesian Multipole Moments
 -----------------------------------------------------------------
    Charge (ESU x 10^10)
                -0.0000
    Dipole Moment (Debye)
         X       0.9747      Y      -7.2530      Z       1.2844
       Tot       7.4301
    Quadrupole Moments (Debye-Ang)
        XX    -255.9512     XY      17.9354     YY    -251.6151
        XZ      -2.3097     YZ       2.9771     ZZ    -256.3684

 Total job time:  11928.11s(wall), 76098.77s(cpu)
        *  Thank you very much for using Q-Chem.  Have a nice day.  *
