 Q-Chem 5.0, Q-Chem, Inc., Pleasanton, CA (2017)
 Q-Chem 5.0.1 for Intel X86 EM64T Linux

User input:
--------------------------------------------------------------
$rem
threads 8
jobtype	opt
method PBEh-3c
basis def2-mSVP
mem_static	1024
mem_total	14000
sym_ignore	true
cis_n_roots             2
cis_singlets            false
cis_triplets		true
rpa                     false
cis_state_deriv         1
$end

$molecule
read gsopt_2.mol
$end

--------------------------------------------------------------

   15   -1855.5307275284      7.36E-09 Convergence criterion met
 Total energy in the final basis set = -1855.53072753
   13   -1855.5239390604      6.17E-09 Convergence criterion met
 Total energy in the final basis set = -1855.52393906
   13   -1855.5108961649      4.01E-09 Convergence criterion met
 Total energy in the final basis set = -1855.51089616
   12   -1855.5153046307      5.83E-09 Convergence criterion met
 Total energy in the final basis set = -1855.51530463
   11   -1855.5167750670      6.99E-09 Convergence criterion met
 Total energy in the final basis set = -1855.51677507
   11   -1855.5158203494      4.98E-09 Convergence criterion met
 Total energy in the final basis set = -1855.51582035
   11   -1855.5148117823      7.28E-09 Convergence criterion met
 Total energy in the final basis set = -1855.51481178
   11   -1855.5144909804      6.98E-09 Convergence criterion met
 Total energy in the final basis set = -1855.51449098
   11   -1855.5146131549      4.57E-09 Convergence criterion met
 Total energy in the final basis set = -1855.51461315
   11   -1855.5145776663      4.08E-09 Convergence criterion met
 Total energy in the final basis set = -1855.51457767
   10   -1855.5144943214      3.53E-09 Convergence criterion met
 Total energy in the final basis set = -1855.51449432

             Standard Nuclear Orientation (Angstroms)
    I     Atom           X                Y                Z
 ----------------------------------------------------------------
    1      N       0.0485697241     0.2071254831     0.0192508059
    2      C       0.0863287440     0.3020654904     1.4174432056
    3      C       1.2872044179     0.5157962116     2.0924220665
    4      H       2.2110373037     0.6298036585     1.5430183076
    5      C       1.3079684141     0.5684338113     3.4749742366
    6      H       2.2478723268     0.7350513646     3.9846034098
    7      C       0.1411709852     0.3914812947     4.1972245964
    8      H       0.1520729550     0.4202701285     5.2783480409
    9      C      -1.0505036390     0.1844866334     3.5199624270
   10      H      -1.9567495900     0.0576972856     4.0957875810
   11      C      -1.1071636257     0.1544105389     2.1337755412
   12      C      -0.9407079976    -0.5867125084    -0.5769488410
   13      C      -0.7658976753    -1.1734364557    -1.8311717129
   14      H       0.1263325542    -0.9939750971    -2.4126379364
   15      C      -1.7301217229    -2.0180638085    -2.3525957484
   16      H      -1.5581861927    -2.4745807813    -3.3187490899
   17      C      -2.8821742931    -2.2896635804    -1.6376439720
   18      H      -3.6312475800    -2.9648228553    -2.0288266708
   19      C      -3.0774296862    -1.6636440007    -0.4168856686
   20      H      -3.9972589074    -1.8551111102     0.1176875337
   21      C      -2.1404748264    -0.7906083016     0.1186654971
   22      C       1.2308280134     0.5043669960    -0.7020232788
   23      C       2.0992534126    -0.5046966536    -1.0626209133
   24      H       1.8358933662    -1.5125912099    -0.7674727533
   25      C       1.5322210684     1.8114447466    -1.0482779497
   26      H       0.8611137698     2.6152455465    -0.7758520017
   27      C       2.6961858670     2.0586121143    -1.7464358357
   28      H       2.9362395971     3.0790467128    -2.0191191394
   29      C       3.2573601324    -0.2776004317    -1.8091972993
   30      C       3.5670541123     1.0409281813    -2.1462502860
   31      C       4.7599787523     1.4431127800    -2.9625671820
   32      H       4.6322990155     2.4830676363    -3.2665682358
   33      H       5.6734928954     1.4172328516    -2.3616425253
   34      C      -2.4039267318     0.0504852191     1.3517597512
   35      C      -3.5477928758    -0.5049845435     2.1953096411
   36      H      -4.4747024599    -0.5337058663     1.6229337615
   37      H      -3.7490511923     0.1342148420     3.0545111582
   38      H      -3.3392492405    -1.5121416234     2.5584054281
   39      C       4.9496518055     0.5806078905    -4.2065104563
   40      H       5.4860202879     1.1504187585    -4.9665055432
   41      H       3.9768845896     0.3447095104    -4.6438787877
   42      C       5.7296632870    -0.6587129712    -3.8962031701
   43      C       6.9206271603    -0.8521858746    -4.5851587410
   44      H       7.2125705990    -0.1362084703    -5.3423297536
   45      C       7.7505911910    -1.9343419775    -4.3374200544
   46      C       7.3788854604    -2.8433459835    -3.3472481937
   47      C       6.1969071667    -2.6468489668    -2.6490792983
   48      H       5.9396999475    -3.3781698564    -1.8978236125
   49      C       5.3475723196    -1.5703325339    -2.9021830251
   50      C       8.9513995835    -2.0965933304    -5.0876051158
   51      N       9.9143593197    -2.2084746193    -5.7079994184
   52      C       8.1867159683    -3.9799992639    -3.0478568941
   53      N       8.8230829997    -4.9048291000    -2.7945992126
   54      C       3.9921610322    -1.5745077367    -2.1765129951
   55      C       4.0933669357    -2.4324115550    -0.9169042933
   56      C       4.6627872612    -2.1225881544     0.2790916006
   57      H       5.1172285366    -1.1534342583     0.4431594936
   58      C       4.6599803124    -3.0855001931     1.3080006898
   59      H       5.1188625105    -2.8579209228     2.2591864750
   60      C       4.0695371358    -4.3584384121     1.1028002021
   61      H       4.0888475859    -5.0778040269     1.9106211684
   62      C       3.4752963734    -4.6864788854    -0.0797456425
   63      H       3.0154106161    -5.6552924129    -0.2207288333
   64      C       3.4556212070    -3.7133146306    -1.1310726374
   65      C       2.8706870306    -3.7342981002    -2.3821582856
   66      C       2.0823428144    -4.7400297389    -3.0359980356
   67      H       1.9455232845    -5.7093861492    -2.5761818329
   68      C       1.5000289966    -4.4434556950    -4.2306374034
   69      H       0.8960383257    -5.1862408832    -4.7347971144
   70      C       1.6631906479    -3.1683385975    -4.8321837998
   71      H       1.1827980851    -2.9577820294    -5.7770641118
   72      C       2.4593325016    -2.1795273712    -4.2176428028
   73      H       2.5624323698    -1.2145745811    -4.6961092124
   74      C       3.0735088241    -2.4547718716    -3.0336139329
   75      C      -2.8042823469     1.4619594919     0.8752941302
   76      H      -2.0303875292     1.9143847778     0.2560018716
   77      H      -3.7192103469     1.4143544828     0.2817817243
   78      H      -2.9799047735     2.1192668206     1.7285987230
 ----------------------------------------------------------------

   10   -1855.5143828228      2.95E-09 Convergence criterion met
 Total energy in the final basis set = -1855.51438282

         TDDFT/TDA Excitation Energies
 ---------------------------------------------------

 Excited state   1: excitation energy (eV) =    2.5760
 Total energy for state  1:                 -1855.41971754 au
    Multiplicity: Triplet
    Trans. Mom.:  0.0000 X   0.0000 Y   0.0000 Z
    Strength   :     0.0000000000
    D(157) --> V(  1) amplitude =  0.2184
    D(157) --> V(  2) amplitude =  0.8880
    D(157) --> V(  3) amplitude =  0.2512

 Excited state   2: excitation energy (eV) =    3.4142
 Total energy for state  2:                 -1855.38891294 au
    Multiplicity: Triplet
    Trans. Mom.:  0.0000 X   0.0000 Y   0.0000 Z
    Strength   :     0.0000000000
    D(148) --> V(  1) amplitude = -0.2480
    D(149) --> V(  3) amplitude = -0.2622
    D(150) --> V(  1) amplitude =  0.2842
    D(151) --> V(  1) amplitude =  0.6810
    D(157) --> V(  1) amplitude =  0.3611

 ---------------------------------------------------

 Final energy is   -1855.41971754358
 **  OPTIMIZATION CONVERGED  **

                    Orbital Energies (a.u.)
 --------------------------------------------------------------

 Alpha MOs
 -- Occupied --
-14.681 -14.657 -14.654 -10.522 -10.520 -10.514 -10.508 -10.500
-10.500 -10.497 -10.497 -10.493 -10.491 -10.491 -10.490 -10.487
-10.483 -10.480 -10.479 -10.478 -10.477 -10.475 -10.471 -10.470
-10.469 -10.469 -10.469 -10.469 -10.469 -10.467 -10.466 -10.465
-10.465 -10.463 -10.462 -10.452 -10.451 -10.444 -10.444 -10.443
-10.442 -10.442 -10.440 -10.438 -10.436 -10.431 -10.426  -1.092
 -1.041  -1.027  -1.019  -1.002  -0.987  -0.961  -0.960  -0.958
 -0.938  -0.932  -0.911  -0.896  -0.890  -0.886  -0.861  -0.859
 -0.849  -0.847  -0.834  -0.819  -0.811  -0.809  -0.797  -0.773
 -0.772  -0.745  -0.736  -0.725  -0.714  -0.713  -0.702  -0.691
 -0.679  -0.675  -0.672  -0.668  -0.667  -0.645  -0.619  -0.613
 -0.613  -0.608  -0.600  -0.586  -0.579  -0.573  -0.567  -0.563
 -0.542  -0.540  -0.537  -0.533  -0.532  -0.525  -0.522  -0.521
 -0.516  -0.508  -0.508  -0.503  -0.501  -0.500  -0.497  -0.493
 -0.492  -0.490  -0.485  -0.483  -0.475  -0.470  -0.459  -0.449
 -0.447  -0.444  -0.440  -0.438  -0.437  -0.436  -0.435  -0.432
 -0.428  -0.426  -0.424  -0.423  -0.419  -0.418  -0.415  -0.413
 -0.410  -0.403  -0.399  -0.398  -0.395  -0.395  -0.391  -0.378
 -0.374  -0.365  -0.349  -0.337  -0.323  -0.317  -0.309  -0.304
 -0.300  -0.292  -0.287  -0.281  -0.255  -0.231

          Ground-State Mulliken Net Atomic Charges

     Atom                 Charge (a.u.)
  ----------------------------------------
      1 N                    -0.702278
      2 C                     0.309005
      3 C                    -0.280032
      4 H                     0.240691
      5 C                    -0.236178
      6 H                     0.214462
      7 C                    -0.217417
      8 H                     0.212597
      9 C                    -0.325877
     10 H                     0.212524
     11 C                     0.172401
     12 C                     0.314525
     13 C                    -0.300375
     14 H                     0.260092
     15 C                    -0.231003
     16 H                     0.216232
     17 C                    -0.220557
     18 H                     0.210710
     19 C                    -0.321552
     20 H                     0.212959
     21 C                     0.151473
     22 C                     0.218485
     23 C                    -0.282851
     24 H                     0.288646
     25 C                    -0.240451
     26 H                     0.235194
     27 C                    -0.301487
     28 H                     0.218326
     29 C                     0.224604
     30 C                     0.049151
     31 C                    -0.516941
     32 H                     0.246463
     33 H                     0.253441
     34 C                    -0.229067
     35 C                    -0.665359
     36 H                     0.227907
     37 H                     0.227774
     38 H                     0.239472
     39 C                    -0.545397
     40 H                     0.253709
     41 H                     0.258972
     42 C                     0.112302
     43 C                    -0.321705
     44 H                     0.246013
     45 C                     0.077640
     46 C                     0.096718
     47 C                    -0.301839
     48 H                     0.287013
     49 C                     0.214901
     50 C                    -0.007522
     51 N                    -0.153861
     52 C                    -0.008229
     53 N                    -0.154844
     54 C                    -0.407080
     55 C                     0.006978
     56 C                    -0.264030
     57 H                     0.224590
     58 C                    -0.234870
     59 H                     0.231443
     60 C                    -0.204753
     61 H                     0.230961
     62 C                    -0.298256
     63 H                     0.216243
     64 C                     0.144565
     65 C                     0.104174
     66 C                    -0.290570
     67 H                     0.214284
     68 C                    -0.209599
     69 H                     0.229107
     70 C                    -0.233432
     71 H                     0.229846
     72 C                    -0.290710
     73 H                     0.219661
     74 C                     0.162698
     75 C                    -0.593926
     76 H                     0.232741
     77 H                     0.221001
     78 H                     0.219356
  ----------------------------------------
  Sum of atomic charges =    -0.000000

                    Cartesian Multipole Moments
 -----------------------------------------------------------------
    Charge (ESU x 10^10)
                -0.0000
    Dipole Moment (Debye)
         X      -6.3476      Y       3.8029      Z       1.3813
       Tot       7.5274
    Quadrupole Moments (Debye-Ang)
        XX    -360.7173     XY      54.6337     YY    -273.9144
        XZ      39.2710     YZ     -20.4675     ZZ    -266.7134

 Total job time:  23447.52s(wall), 138444.89s(cpu)
        *  Thank you very much for using Q-Chem.  Have a nice day.  *
