 Q-Chem 5.0, Q-Chem, Inc., Pleasanton, CA (2017)
 Q-Chem 5.0.1 for Intel X86 EM64T Linux

User input:
--------------------------------------------------------------
$rem
threads 8
jobtype	opt
method PBEh-3c
basis def2-mSVP
mem_static	1024
mem_total	14000
sym_ignore	true
cis_n_roots             5
cis_singlets            false
cis_triplets		true
rpa                     false
cis_state_deriv         4
state_follow		true
$end

$molecule
read gsopt.mol
$end

--------------------------------------------------------------

   15   -1855.5319838414      7.51E-09 Convergence criterion met
 Total energy in the final basis set = -1855.53198384
   13   -1855.5276686971      7.15E-09 Convergence criterion met
 Total energy in the final basis set = -1855.52766870
   13   -1855.5224534908      5.55E-09 Convergence criterion met
 Total energy in the final basis set = -1855.52245349
   13   -1855.5193235386      6.78E-09 Convergence criterion met
 Total energy in the final basis set = -1855.51932354
   13   -1855.5190198082      5.99E-09 Convergence criterion met
 Total energy in the final basis set = -1855.51901981
   12   -1855.5193923509      5.30E-09 Convergence criterion met
 Total energy in the final basis set = -1855.51939235
   12   -1855.5189597938      4.48E-09 Convergence criterion met
 Total energy in the final basis set = -1855.51895979
   11   -1855.5183408618      8.74E-09 Convergence criterion met
   12   -1855.5185719512      6.21E-09 Convergence criterion met
 Total energy in the final basis set = -1855.51857195
   12   -1855.5192933866      6.47E-09 Convergence criterion met
 Total energy in the final basis set = -1855.51929339
   11   -1855.5194138905      7.81E-09 Convergence criterion met
 Total energy in the final basis set = -1855.51941389
   11   -1855.5193608145      4.45E-09 Convergence criterion met
 Total energy in the final basis set = -1855.51936081
   10   -1855.5192792420      4.81E-09 Convergence criterion met
 Total energy in the final basis set = -1855.51927924
   10   -1855.5193299135      4.31E-09 Convergence criterion met
 Total energy in the final basis set = -1855.51932991

             Standard Nuclear Orientation (Angstroms)
    I     Atom           X                Y                Z
 ----------------------------------------------------------------
    1      N       0.1219308279     0.1347173381     0.0441131614
    2      C       0.0490557651     0.4661373234     1.3749545707
    3      C       1.2057707106     0.9293436666     2.0362102183
    4      H       2.1461950538     0.9765936887     1.5100165940
    5      C       1.1393026778     1.3092527213     3.3517176474
    6      H       2.0295553661     1.6629517394     3.8509800335
    7      C      -0.0703768306     1.2306497883     4.0377375508
    8      H      -0.1312892868     1.5363973022     5.0725627737
    9      C      -1.1969189549     0.7419819706     3.3975235106
   10      H      -2.1207626872     0.6742501265     3.9555905313
   11      C      -1.1689493122     0.3378527126     2.0733168802
   12      C      -0.9281026346    -0.4198433218    -0.6458869494
   13      C      -0.7708229694    -0.7653463198    -2.0074383543
   14      H       0.1571899914    -0.5837737468    -2.5246924558
   15      C      -1.7964163888    -1.3656435416    -2.6888845001
   16      H      -1.6460681798    -1.6494269475    -3.7197928414
   17      C      -3.0084031066    -1.6123765361    -2.0490231646
   18      H      -3.8204017937    -2.0866256096    -2.5820846749
   19      C      -3.1770392446    -1.2416341118    -0.7254236867
   20      H      -4.1331444062    -1.4257408892    -0.2551101801
   21      C      -2.1616685763    -0.6450567369     0.0026745934
   22      C       1.3523053107     0.3664088210    -0.6636595517
   23      C       2.1093395949    -0.7187226237    -1.0351665674
   24      H       1.7748656186    -1.7098382591    -0.7546958089
   25      C       1.7154070257     1.6536597379    -1.0190003664
   26      H       1.1032184662     2.5062413092    -0.7550032617
   27      C       2.9019136067     1.8054381732    -1.7056919371
   28      H       3.2364850826     2.8041382312    -1.9559208548
   29      C       3.2547456180    -0.5778998458    -1.8182544802
   30      C       3.6917112397     0.7201465184    -2.0997999401
   31      C       5.0225111633     1.0071151377    -2.7270972349
   32      H       5.2452991128     2.0668801700    -2.5869864364
   33      H       4.9935175772     0.8366455766    -3.8061778340
   34      C      -2.4140091868    -0.2195372897     1.4264730868
   35      C      -2.8964534090    -1.4374179808     2.2398234825
   36      H      -3.8109644607    -1.8537004604     1.8197542654
   37      H      -3.1159598687    -1.1603170513     3.2697204158
   38      H      -2.1437145303    -2.2245544170     2.2537090814
   39      C       6.1232876706     0.1374739371    -2.1107241397
   40      H       7.0728346649     0.6734472882    -2.1453926744
   41      H       5.9028754800    -0.0123658054    -1.0456479385
   42      C       6.2589062528    -1.1475639143    -2.8644532473
   43      C       7.4703734159    -1.4763467366    -3.4086085984
   44      H       8.3275669412    -0.8516330898    -3.1845738963
   45      C       7.6643131531    -2.5632656254    -4.2839617046
   46      C       6.4911270852    -3.3185600514    -4.6502429904
   47      C       5.2693276605    -2.9817752811    -4.0741368165
   48      H       4.4258624271    -3.6065808068    -4.3376936709
   49      C       5.0974929434    -1.9330217299    -3.1898163981
   50      C       8.9399095821    -2.8446215791    -4.7840228424
   51      N      10.0085669249    -3.0556310116    -5.1889999025
   52      C       6.5338824577    -4.3882844838    -5.5645198221
   53      N       6.5420660201    -5.2751542379    -6.3106408779
   54      C       3.7879973843    -1.8976044332    -2.4059979768
   55      C       2.6268154523    -2.4136507471    -3.2537734496
   56      C       2.1018813905    -1.8587575545    -4.4052827882
   57      H       2.5313760425    -0.9593828432    -4.8291915541
   58      C       1.0466345537    -2.5025059072    -5.0422997352
   59      H       0.6488730639    -2.0972373523    -5.9640255583
   60      C       0.5255902731    -3.6852859335    -4.5270094231
   61      H      -0.2796857746    -4.1885677388    -5.0469239648
   62      C       1.0510366942    -4.2413218939    -3.3701746735
   63      H       0.6566382331    -5.1738094229    -2.9853539297
   64      C       2.1068025998    -3.5999868907    -2.7378780717
   65      C       2.8738217917    -3.9636434207    -1.5516582341
   66      C       2.7865974571    -5.0720661370    -0.7244252120
   67      H       2.0530792060    -5.8478041872    -0.9074637462
   68      C       3.6742391748    -5.1814085228     0.3360708088
   69      H       3.6329371771    -6.0446697656     0.9868960659
   70      C       4.6336900235    -4.1975026400     0.5553409884
   71      H       5.3316490755    -4.3070097905     1.3750606307
   72      C       4.7226735424    -3.0893324676    -0.2768337064
   73      H       5.4958757079    -2.3472323839    -0.1240810833
   74      C       3.8360901969    -2.9755532183    -1.3299224542
   75      C      -3.5067045228     0.8706537694     1.4161546987
   76      H      -3.1888554703     1.7431185317     0.8463692599
   77      H      -4.4251992031     0.4937584942     0.9677504305
   78      H      -3.7440093380     1.1948871395     2.4286963771
 ----------------------------------------------------------------

    8   -1855.5193330554      9.80E-09 Convergence criterion met
 Total energy in the final basis set = -1855.51933306

         TDDFT/TDA Excitation Energies
 ---------------------------------------------------

 Excited state   1: excitation energy (eV) =    3.0096
 Total energy for state  1:                 -1855.40873210 au
    Multiplicity: Triplet
    Trans. Mom.:  0.0000 X   0.0000 Y   0.0000 Z
    Strength   :     0.0000000000
    D(148) --> V(  1) amplitude =  0.2198
    D(150) --> V(  1) amplitude =  0.3935
    D(151) --> V(  1) amplitude = -0.5405
    D(152) --> V(  1) amplitude =  0.5209
    D(157) --> V(  1) amplitude =  0.2198

 Excited state   2: excitation energy (eV) =    3.1228
 Total energy for state  2:                 -1855.40457386 au
    Multiplicity: Triplet
    Trans. Mom.:  0.0000 X   0.0000 Y   0.0000 Z
    Strength   :     0.0000000000
    D(158) --> V(  1) amplitude =  0.9925

 Excited state   3: excitation energy (eV) =    3.3579
 Total energy for state  3:                 -1855.39593160 au
    Multiplicity: Triplet
    Trans. Mom.:  0.0000 X   0.0000 Y   0.0000 Z
    Strength   :     0.0000000000
    D(157) --> V(  2) amplitude = -0.6232
    D(157) --> V(  3) amplitude =  0.5499

 Excited state   4: excitation energy (eV) =    3.4054
 Total energy for state  4:                 -1855.39418661 au
    Multiplicity: Triplet
    Trans. Mom.:  0.0000 X   0.0000 Y   0.0000 Z
    Strength   :     0.0000000000
    D(158) --> V(  7) amplitude = -0.5478
    D(158) --> V(  8) amplitude =  0.6468

 Excited state   5: excitation energy (eV) =    3.6855
 Total energy for state  5:                 -1855.38389517 au
    Multiplicity: Triplet
    Trans. Mom.:  0.0000 X   0.0000 Y   0.0000 Z
    Strength   :     0.0000000000
    D(158) --> V(  4) amplitude =  0.4031
    D(158) --> V(  6) amplitude = -0.4824
    D(158) --> V(  7) amplitude = -0.3431
    D(158) --> V(  8) amplitude = -0.3449

 ---------------------------------------------------

 Final energy is   -1855.40457385568
 **  OPTIMIZATION CONVERGED  **

                    Orbital Energies (a.u.)
 --------------------------------------------------------------

 Alpha MOs
 -- Occupied --
-14.680 -14.662 -14.659 -10.529 -10.527 -10.513 -10.511 -10.504
-10.504 -10.501 -10.499 -10.496 -10.494 -10.493 -10.492 -10.487
-10.480 -10.478 -10.477 -10.476 -10.474 -10.474 -10.470 -10.468
-10.468 -10.467 -10.467 -10.467 -10.467 -10.466 -10.466 -10.465
-10.464 -10.464 -10.462 -10.450 -10.449 -10.443 -10.443 -10.442
-10.440 -10.440 -10.437 -10.436 -10.434 -10.426 -10.426  -1.097
 -1.041  -1.030  -1.019  -1.001  -0.988  -0.969  -0.960  -0.956
 -0.938  -0.935  -0.908  -0.900  -0.892  -0.885  -0.860  -0.857
 -0.850  -0.845  -0.836  -0.825  -0.816  -0.808  -0.794  -0.776
 -0.769  -0.747  -0.732  -0.726  -0.714  -0.713  -0.707  -0.690
 -0.682  -0.679  -0.672  -0.668  -0.665  -0.646  -0.617  -0.616
 -0.615  -0.612  -0.598  -0.586  -0.583  -0.571  -0.566  -0.561
 -0.540  -0.538  -0.535  -0.532  -0.531  -0.527  -0.523  -0.522
 -0.517  -0.511  -0.509  -0.504  -0.502  -0.499  -0.494  -0.492
 -0.489  -0.488  -0.484  -0.477  -0.474  -0.467  -0.462  -0.453
 -0.452  -0.450  -0.442  -0.441  -0.439  -0.438  -0.435  -0.432
 -0.429  -0.428  -0.427  -0.424  -0.421  -0.417  -0.415  -0.412
 -0.410  -0.403  -0.399  -0.398  -0.397  -0.395  -0.393  -0.374
 -0.372  -0.365  -0.350  -0.338  -0.324  -0.313  -0.306  -0.302
 -0.299  -0.289  -0.287  -0.283  -0.271  -0.217

          Ground-State Mulliken Net Atomic Charges

     Atom                 Charge (a.u.)
  ----------------------------------------
      1 N                    -0.707756
      2 C                     0.306522
      3 C                    -0.304377
      4 H                     0.248438
      5 C                    -0.228411
      6 H                     0.214364
      7 C                    -0.232717
      8 H                     0.210149
      9 C                    -0.291190
     10 H                     0.207893
     11 C                     0.142606
     12 C                     0.298089
     13 C                    -0.301682
     14 H                     0.261681
     15 C                    -0.221982
     16 H                     0.214266
     17 C                    -0.234805
     18 H                     0.206883
     19 C                    -0.289970
     20 H                     0.206591
     21 C                     0.140344
     22 C                     0.170016
     23 C                    -0.268291
     24 H                     0.280565
     25 C                    -0.214616
     26 H                     0.245436
     27 C                    -0.304705
     28 H                     0.219355
     29 C                     0.219426
     30 C                     0.068292
     31 C                    -0.521794
     32 H                     0.249742
     33 H                     0.251757
     34 C                    -0.211099
     35 C                    -0.602119
     36 H                     0.215784
     37 H                     0.216564
     38 H                     0.235829
     39 C                    -0.535956
     40 H                     0.251530
     41 H                     0.257952
     42 C                     0.139059
     43 C                    -0.315731
     44 H                     0.246411
     45 C                     0.071881
     46 C                     0.080537
     47 C                    -0.283803
     48 H                     0.279921
     49 C                     0.164762
     50 C                    -0.005770
     51 N                    -0.159341
     52 C                    -0.005542
     53 N                    -0.158925
     54 C                    -0.421209
     55 C                     0.065791
     56 C                    -0.266214
     57 H                     0.225231
     58 C                    -0.236239
     59 H                     0.231245
     60 C                    -0.215683
     61 H                     0.231069
     62 C                    -0.316150
     63 H                     0.214133
     64 C                     0.155572
     65 C                     0.135221
     66 C                    -0.321343
     67 H                     0.214975
     68 C                    -0.215312
     69 H                     0.230392
     70 C                    -0.223443
     71 H                     0.228194
     72 C                    -0.277289
     73 H                     0.216336
     74 C                     0.152306
     75 C                    -0.594120
     76 H                     0.232231
     77 H                     0.217142
     78 H                     0.215100
  ----------------------------------------
  Sum of atomic charges =     0.000000

                    Cartesian Multipole Moments
 -----------------------------------------------------------------
    Charge (ESU x 10^10)
                -0.0000
    Dipole Moment (Debye)
         X      -3.7890      Y       3.7739      Z       3.9361
       Tot       6.6402
    Quadrupole Moments (Debye-Ang)
        XX    -319.5180     XY      52.1645     YY    -281.1805
        XZ      53.0770     YZ     -35.1787     ZZ    -298.4828

 Total job time:  45990.47s(wall), 292660.99s(cpu)
        *  Thank you very much for using Q-Chem.  Have a nice day.  *
