 Q-Chem 5.0, Q-Chem, Inc., Pleasanton, CA (2017)
 Q-Chem 5.0.1 for Intel X86 EM64T Linux

User input:
--------------------------------------------------------------
$rem
threads 8
jobtype	sp
method PBEh-3c
basis def2-mSVP
mem_static	1024
mem_total	14000
sym_ignore	true
cis_n_roots             6
cis_singlets            true
cis_triplets		true
rpa                     false
calc_soc 		true
cis_moments             true
cis_relaxed_density	true
$end

$molecule
read tctopt.mol
$end

--------------------------------------------------------------

             Standard Nuclear Orientation (Angstroms)
    I     Atom           X                Y                Z
 ----------------------------------------------------------------
    1      N       0.0000000000     0.0000000000     0.0000000000
    2      C       0.0000000000     0.0000000000     1.3733930000
    3      C       1.1526857293     0.0000000000    -0.7467285983
    4      C       2.4086346559     0.1032283341    -0.1145588389
    5      C       3.5326257807     0.1568995873    -0.9216462410
    6      H       4.5095357326     0.2552792719    -0.4683438917
    7      C       3.4469083712     0.0842404212    -2.3019147470
    8      H       4.3468230373     0.1295428215    -2.8987031793
    9      C       2.2045535386    -0.0647705688    -2.9138592152
   10      H       2.1304442075    -0.1502486442    -3.9881578714
   11      C       1.0669012978    -0.1108138810    -2.1503563500
   12      H       0.1066262062    -0.2410787473    -2.6240781733
   13      C       1.2208365743     0.0318138680     2.0816189520
   14      C       1.1688002795    -0.0084148718     3.4646167955
   15      H       2.0879539555     0.0154522364     4.0336632540
   16      C      -0.0323853455    -0.0769621703     4.1503706474
   17      H      -0.0331313355    -0.1186104483     5.2304977368
   18      C      -1.2333984221    -0.0842883190     3.4455826435
   19      H      -2.1794469623    -0.1392414629     3.9631558683
   20      C      -1.2256540056    -0.0325007149     2.0767048028
   21      H      -2.1681015585    -0.0381297679     1.5537428435
   22      C      -1.2679776696    -0.0103353179    -0.6786537691
   23      C      -2.0269508700    -1.1550934237    -0.6326365167
   24      H      -1.6333154828    -2.0226523513    -0.1176214340
   25      C      -1.7319943789     1.1371927838    -1.2975169232
   26      H      -1.1490869240     2.0490619056    -1.3063619940
   27      C      -2.9600658722     1.0627202013    -1.9209545365
   28      H      -3.3284854645     1.9297629768    -2.4542999257
   29      C      -3.3122724096    -1.2027097224    -1.1717965946
   30      C      -3.7560801272    -0.0871803606    -1.8885671161
   31      C      -5.0119912276    -0.0990219077    -2.7067530162
   32      H      -4.9927676168     0.7640592761    -3.3754003291
   33      H      -5.8948746458     0.0191702593    -2.0736163431
   34      C       2.5532668504     0.1528013322     1.3874029632
   35      C      -5.1383173719    -1.3996940588    -3.5068742860
   36      H      -5.6834922506    -1.2065613332    -4.4318568427
   37      H      -4.1360562822    -1.7271230626    -3.8129538416
   38      C      -5.8723037510    -2.4335461607    -2.7130006494
   39      C      -7.0086058441    -2.9904871973    -3.2330877075
   40      H      -7.2854101340    -2.7499619802    -4.2532677368
   41      C      -7.8708635105    -3.8320862953    -2.5026974972
   42      C      -9.0051938336    -4.3771078922    -3.1131182224
   43      N      -9.9432884860    -4.8145463033    -3.6414989016
   44      C      -5.5137689735    -2.6983266934    -1.3444140336
   45      C      -6.3701256439    -3.4957120139    -0.6080287093
   46      H      -6.1337586886    -3.7310413391     0.4215483012
   47      C      -7.5388956443    -4.0554556111    -1.1167317916
   48      C      -8.3485407031    -4.8231381605    -0.2581399184
   49      N      -8.9947174647    -5.4537369674     0.4685667622
   50      C      -4.1316242943    -2.4369257539    -0.7513293964
   51      C      -3.2942815473    -3.7021850375    -0.8934615967
   52      C      -2.9192953790    -4.3498667009    -2.0544371297
   53      H      -3.2052438676    -3.9574802186    -3.0219880751
   54      C      -2.2083935781    -5.5388173603    -1.9570268535
   55      H      -1.9214314607    -6.0646456760    -2.8582683575
   56      C      -1.8798442391    -6.0760862449    -0.7160221127
   57      H      -1.3395756584    -7.0119181070    -0.6628474821
   58      C      -2.2604957901    -5.4303039119     0.4512759869
   59      H      -2.0226936170    -5.8587891315     1.4172846737
   60      C      -2.9663116790    -4.2417683015     0.3526259850
   61      C      -3.5119724063    -3.3713824640     1.3881770584
   62      C      -3.4631801446    -3.4630495849     2.7720002407
   63      H      -2.9480399248    -4.2833159576     3.2567313296
   64      C      -4.1144091164    -2.5016708188     3.5304115312
   65      H      -4.1087628167    -2.5752577015     4.6105159938
   66      C      -4.8019613527    -1.4612526128     2.9133362321
   67      H      -5.3334883699    -0.7365147024     3.5168838628
   68      C      -4.8464875409    -1.3683696104     1.5265633386
   69      H      -5.4144955709    -0.5800864804     1.0480081762
   70      C      -4.1993581236    -2.3272317127     0.7707579475
   71      C       3.4654684401    -1.0052647878     1.8393925379
   72      H       4.4491306438    -0.9339231453     1.3779011101
   73      H       3.6171613190    -0.9886435844     2.9177213400
   74      H       3.0361494325    -1.9706857256     1.5747435302
   75      C       3.1832743127     1.5038654048     1.7878049197
   76      H       4.1637106629     1.6282936347     1.3296090853
   77      H       3.3147214233     1.5647393905     2.8675108053
   78      H       2.5559788943     2.3392524436     1.4787640029
 ----------------------------------------------------------------

   15   -1855.5191414826      7.68E-09 Convergence criterion met
 Total energy in the final basis set = -1855.51914148

         TDDFT/TDA Excitation Energies
 ---------------------------------------------------

 Excited state   1: excitation energy (eV) =    3.0101
 Total energy for state  1:                 -1855.40852215 au
    Multiplicity: Triplet
    Trans. Mom.:  0.0000 X   0.0000 Y   0.0000 Z
    Strength   :     0.0000000000
    D(148) --> V(  1) amplitude = -0.2199
    D(150) --> V(  1) amplitude = -0.3935
    D(151) --> V(  1) amplitude =  0.5414
    D(152) --> V(  1) amplitude = -0.5200
    D(157) --> V(  1) amplitude =  0.2196

 Excited state   2: excitation energy (eV) =    3.1236
 Total energy for state  2:                 -1855.40435239 au
    Multiplicity: Triplet
    Trans. Mom.:  0.0000 X   0.0000 Y   0.0000 Z
    Strength   :     0.0000000000
    D(158) --> V(  1) amplitude =  0.9925

 Excited state   3: excitation energy (eV) =    3.1241
 Total energy for state  3:                 -1855.40433319 au
    Multiplicity: Singlet
    Trans. Mom.: -0.0956 X  -0.0575 Y  -0.0219 Z
    Strength   :     0.0009884198
    D(158) --> V(  1) amplitude =  0.9975

 Excited state   4: excitation energy (eV) =    3.3581
 Total energy for state  4:                 -1855.39573387 au
    Multiplicity: Triplet
    Trans. Mom.:  0.0000 X   0.0000 Y   0.0000 Z
    Strength   :     0.0000000000
    D(157) --> V(  2) amplitude = -0.6231
    D(157) --> V(  3) amplitude =  0.5496

 Excited state   5: excitation energy (eV) =    3.4053
 Total energy for state  5:                 -1855.39399848 au
    Multiplicity: Triplet
    Trans. Mom.:  0.0000 X   0.0000 Y   0.0000 Z
    Strength   :     0.0000000000
    D(158) --> V(  7) amplitude =  0.5503
    D(158) --> V(  8) amplitude = -0.6451

 Excited state   6: excitation energy (eV) =    3.6852
 Total energy for state  6:                 -1855.38371354 au
    Multiplicity: Triplet
    Trans. Mom.:  0.0000 X   0.0000 Y   0.0000 Z
    Strength   :     0.0000000000
    D(158) --> V(  4) amplitude =  0.4021
    D(158) --> V(  6) amplitude = -0.4833
    D(158) --> V(  7) amplitude =  0.3409
    D(158) --> V(  8) amplitude =  0.3467

 Excited state   7: excitation energy (eV) =    3.7726
 Total energy for state  7:                 -1855.38050250 au
    Multiplicity: Triplet
    Trans. Mom.:  0.0000 X   0.0000 Y   0.0000 Z
    Strength   :     0.0000000000
    D(158) --> V(  2) amplitude =  0.5996
    D(158) --> V(  4) amplitude = -0.3475
    D(158) --> V(  5) amplitude = -0.4792
    D(158) --> V(  8) amplitude =  0.2219
    D(158) --> V( 10) amplitude = -0.3126

 Excited state   8: excitation energy (eV) =    3.8626
 Total energy for state  8:                 -1855.37719232 au
    Multiplicity: Singlet
    Trans. Mom.:  0.0219 X   0.0878 Y  -0.0653 Z
    Strength   :     0.0011778328
    D(158) --> V(  2) amplitude =  0.8952
    D(158) --> V(  3) amplitude = -0.2594
    D(158) --> V(  5) amplitude = -0.2810

 Excited state   9: excitation energy (eV) =    4.0165
 Total energy for state  9:                 -1855.37153925 au
    Multiplicity: Singlet
    Trans. Mom.:  0.2989 X   0.0292 Y   0.0818 Z
    Strength   :     0.0095360996
    D(158) --> V(  2) amplitude =  0.2313
    D(158) --> V(  4) amplitude =  0.8123
    D(158) --> V(  6) amplitude = -0.4043

 Excited state  10: excitation energy (eV) =    4.0375
 Total energy for state 10:                 -1855.37076644 au
    Multiplicity: Singlet
    Trans. Mom.:  0.5577 X   0.0466 Y   0.3450 Z
    Strength   :     0.0427558595
    D(157) --> V(  1) amplitude =  0.9795

 Excited state  11: excitation energy (eV) =    4.1431
 Total energy for state 11:                 -1855.36688533 au
    Multiplicity: Singlet
    Trans. Mom.:  0.2441 X   0.1157 Y   0.0164 Z
    Strength   :     0.0074329010
    D(158) --> V(  3) amplitude =  0.5488
    D(158) --> V(  5) amplitude = -0.6331
    D(158) --> V(  6) amplitude = -0.4635

 Excited state  12: excitation energy (eV) =    4.3823
 Total energy for state 12:                 -1855.35809401 au
    Multiplicity: Singlet
    Trans. Mom.: -0.1067 X  -0.0205 Y   0.1524 Z
    Strength   :     0.0037616122
    D(158) --> V(  2) amplitude =  0.3368
    D(158) --> V(  3) amplitude =  0.7569
    D(158) --> V(  5) amplitude =  0.2216
    D(158) --> V(  6) amplitude =  0.4633

 ---------------------------------------------------

                    Orbital Energies (a.u.)
 --------------------------------------------------------------

 Alpha MOs
 -- Occupied --
-14.680 -14.662 -14.659 -10.529 -10.527 -10.513 -10.511 -10.504
-10.504 -10.501 -10.499 -10.496 -10.494 -10.493 -10.492 -10.487
-10.480 -10.478 -10.477 -10.476 -10.474 -10.474 -10.470 -10.468
-10.468 -10.467 -10.467 -10.467 -10.467 -10.466 -10.466 -10.465
-10.464 -10.464 -10.462 -10.450 -10.449 -10.443 -10.443 -10.442
-10.440 -10.440 -10.437 -10.436 -10.434 -10.426 -10.426  -1.097
 -1.041  -1.030  -1.019  -1.001  -0.988  -0.969  -0.960  -0.956
 -0.938  -0.935  -0.908  -0.900  -0.892  -0.885  -0.860  -0.857
 -0.850  -0.845  -0.836  -0.825  -0.816  -0.808  -0.794  -0.776
 -0.769  -0.747  -0.732  -0.726  -0.714  -0.713  -0.707  -0.690
 -0.682  -0.679  -0.672  -0.668  -0.665  -0.646  -0.617  -0.616
 -0.615  -0.612  -0.598  -0.586  -0.583  -0.571  -0.566  -0.561
 -0.540  -0.538  -0.535  -0.532  -0.531  -0.527  -0.523  -0.522
 -0.517  -0.511  -0.509  -0.504  -0.502  -0.499  -0.494  -0.492
 -0.489  -0.488  -0.484  -0.477  -0.474  -0.467  -0.462  -0.453
 -0.452  -0.450  -0.442  -0.441  -0.439  -0.438  -0.435  -0.432
 -0.429  -0.428  -0.427  -0.424  -0.421  -0.417  -0.415  -0.412
 -0.410  -0.403  -0.399  -0.398  -0.397  -0.395  -0.393  -0.374
 -0.372  -0.365  -0.350  -0.338  -0.324  -0.313  -0.306  -0.302
 -0.299  -0.289  -0.287  -0.283  -0.271  -0.217

          Ground-State Mulliken Net Atomic Charges

     Atom                 Charge (a.u.)
  ----------------------------------------
      1 N                    -0.707757
      2 C                     0.297730
      3 C                     0.306472
      4 C                     0.142600
      5 C                    -0.290808
      6 H                     0.207811
      7 C                    -0.232792
      8 H                     0.210195
      9 C                    -0.228356
     10 H                     0.214336
     11 C                    -0.304875
     12 H                     0.248416
     13 C                     0.141087
     14 C                    -0.290402
     15 H                     0.206672
     16 C                    -0.234802
     17 H                     0.206836
     18 C                    -0.221975
     19 H                     0.214239
     20 C                    -0.301511
     21 H                     0.261782
     22 C                     0.170325
     23 C                    -0.268389
     24 H                     0.280647
     25 C                    -0.214920
     26 H                     0.245433
     27 C                    -0.304809
     28 H                     0.219415
     29 C                     0.219441
     30 C                     0.068670
     31 C                    -0.521841
     32 H                     0.249772
     33 H                     0.251706
     34 C                    -0.211517
     35 C                    -0.536337
     36 H                     0.251574
     37 H                     0.258002
     38 C                     0.139244
     39 C                    -0.315551
     40 H                     0.246437
     41 C                     0.071622
     42 C                    -0.005832
     43 N                    -0.159341
     44 C                     0.165446
     45 C                    -0.284325
     46 H                     0.279996
     47 C                     0.080778
     48 C                    -0.005574
     49 N                    -0.158919
     50 C                    -0.421140
     51 C                     0.152076
     52 C                    -0.276892
     53 H                     0.216269
     54 C                    -0.223531
     55 H                     0.228210
     56 C                    -0.215540
     57 H                     0.230449
     58 C                    -0.320918
     59 H                     0.214940
     60 C                     0.135735
     61 C                     0.155445
     62 C                    -0.316780
     63 H                     0.214024
     64 C                    -0.215468
     65 H                     0.231069
     66 C                    -0.236226
     67 H                     0.231208
     68 C                    -0.266153
     69 H                     0.225079
     70 C                     0.065418
     71 C                    -0.601491
     72 H                     0.216450
     73 H                     0.215660
     74 H                     0.235715
     75 C                    -0.594249
     76 H                     0.215161
     77 H                     0.217178
     78 H                     0.232256
  ----------------------------------------
  Sum of atomic charges =     0.000000

                    Cartesian Multipole Moments
 -----------------------------------------------------------------
    Charge (ESU x 10^10)
                -0.0000
    Dipole Moment (Debye)
         X       5.4783      Y       3.7050      Z      -0.6027
       Tot       6.6410
    Quadrupole Moments (Debye-Ang)
        XX    -356.9142     XY     -64.0840     YY    -293.2706
        XZ      -4.0431     YZ      -9.3772     ZZ    -249.4520

 Total job time:  6000.41s(wall), 32100.55s(cpu)
        *  Thank you very much for using Q-Chem.  Have a nice day.  *
