 Q-Chem 5.0, Q-Chem, Inc., Pleasanton, CA (2017)
 Q-Chem 5.0.1 for Intel X86 EM64T Linux

User input:
--------------------------------------------------------------
$rem
threads 8
jobtype	opt
method PBEh-3c
basis def2-mSVP
mem_static	1024
mem_total	14000
sym_ignore	true
cis_n_roots             3
cis_singlets            false
cis_triplets		true
rpa                     false
cis_state_deriv         1
state_follow		true
$end

$molecule
read s1opt.mol
$end

--------------------------------------------------------------

   15   -1855.5182437337      7.13E-09 Convergence criterion met
 Total energy in the final basis set = -1855.51824373
   13   -1855.5164767382      5.99E-09 Convergence criterion met
 Total energy in the final basis set = -1855.51647674
   13   -1855.5135003871      4.78E-09 Convergence criterion met
 Total energy in the final basis set = -1855.51350039
   13   -1855.5126737423      4.86E-09 Convergence criterion met
 Total energy in the final basis set = -1855.51267374
   13   -1855.5119392881      3.92E-09 Convergence criterion met
 Total energy in the final basis set = -1855.51193929
   12   -1855.5120947471      8.06E-09 Convergence criterion met
 Total energy in the final basis set = -1855.51209475
   12   -1855.5118378929      4.72E-09 Convergence criterion met
 Total energy in the final basis set = -1855.51183789
   12   -1855.5111900323      3.89E-09 Convergence criterion met
 Total energy in the final basis set = -1855.51119003
   11   -1855.5104147355      7.28E-09 Convergence criterion met
 Total energy in the final basis set = -1855.51041474
   10   -1855.5099838941      8.48E-09 Convergence criterion met
 Total energy in the final basis set = -1855.50998389
   10   -1855.5096323646      6.76E-09 Convergence criterion met
 Total energy in the final basis set = -1855.50963236
   10   -1855.5094155836      4.82E-09 Convergence criterion met
 Total energy in the final basis set = -1855.50941558
    9   -1855.5093640577      7.06E-09 Convergence criterion met
 Total energy in the final basis set = -1855.50936406

             Standard Nuclear Orientation (Angstroms)
    I     Atom           X                Y                Z
 ----------------------------------------------------------------
    1      N       0.1175843082     0.1543763166     0.1175589478
    2      C       0.1235872683     0.1447673838     1.5157123495
    3      C       1.3384369580     0.1655054928    -0.5687901478
    4      C      -0.9256072990     0.7140563885     2.2335207842
    5      H      -1.7671421395     1.1483754686     1.7101563264
    6      C      -0.8821741313     0.7432854990     3.6157108151
    7      H      -1.7012537377     1.1889366407     4.1647835067
    8      C       0.2131255819     0.2268932136     4.2882271074
    9      H       0.2598033370     0.2609937934     5.3682770947
   10      C       1.2488724334    -0.3477076111     3.5671001199
   11      H       2.0896278761    -0.7622283892     4.1063053058
   12      C       1.2130370465    -0.4235923965     2.1816371853
   13      C       1.4636806583     0.7077133717    -1.8470287340
   14      H       0.6072927817     1.1054950166    -2.3724751217
   15      C       2.6992165328     0.7512992977    -2.4678292477
   16      H       2.7734368587     1.1816960064    -3.4581854605
   17      C       3.8246235668     0.2714535158    -1.8213715323
   18      H       4.7960762269     0.3204565036    -2.2943941356
   19      C       3.6904771939    -0.2966410782    -0.5641692205
   20      H       4.5696713969    -0.6990635458    -0.0804480754
   21      C       2.4573635678    -0.3875404627     0.0664150041
   22      C      -1.1183637755     0.1702581923    -0.5706299939
   23      C      -1.5757432536     1.2932063368    -1.2335316411
   24      H      -0.9841053613     2.1992103935    -1.1877704757
   25      C      -1.8948664963    -0.9834795014    -0.5902870238
   26      H      -1.5591454312    -1.8687056150    -0.0663329832
   27      C      -3.0943812411    -0.9837706585    -1.2666145056
   28      H      -3.7071957306    -1.8769409683    -1.2550991398
   29      C      -2.7549387986     1.2778012467    -1.9841047597
   30      C      -3.5414201495     0.1295221450    -1.9804013500
   31      C      -4.8953656677     0.0606949400    -2.6277799458
   32      H      -5.3800769785    -0.8675715605    -2.3229010361
   33      H      -4.8229109857     0.0121785302    -3.7189033805
   34      C       2.2307783786    -1.1735513699     1.3440853641
   35      C       3.5250355067    -1.4345380793     2.1058795568
   36      H       4.2235862430    -2.0117978076     1.5005674478
   37      H       3.3364681742    -2.0297943141     2.9990515607
   38      H       4.0166440876    -0.5092759593     2.4085687283
   39      C      -5.7740706752     1.2469453793    -2.2139970419
   40      H      -6.8270155157     0.9612773688    -2.2019121414
   41      H      -5.5216808184     1.5266887421    -1.1850708729
   42      C      -5.5929761419     2.3848655124    -3.1595910298
   43      C      -6.6699907546     3.0410937627    -3.6648987581
   44      H      -7.6573732347     2.8343460591    -3.2708635964
   45      C      -6.5591108574     3.9364336384    -4.7526479884
   46      C      -7.6562711615     4.6618499463    -5.2027188858
   47      N      -8.5817110984     5.2597455176    -5.5730965525
   48      C      -5.2479612011     4.0168606734    -5.4459875950
   49      C      -4.1504173663     3.4194730229    -4.8766632145
   50      H      -3.1935604111     3.5612746818    -5.3583255896
   51      C      -4.2317967294     2.6880910037    -3.6835141869
   52      C      -5.1348772192     4.7216492257    -6.6575949112
   53      N      -5.0422726319     5.3064001268    -7.6513533743
   54      C      -2.9888796922     2.5290724528    -2.8287246374
   55      C      -1.7438853040     2.7486047215    -3.6704827963
   56      C      -1.1891075986     1.8776513130    -4.5868140364
   57      H      -1.6274574524     0.9029514245    -4.7636078209
   58      C      -0.0505749025     2.2778319924    -5.2741928373
   59      H       0.4019909668     1.6126070987    -5.9974956266
   60      C       0.5131039396     3.5281864719    -5.0380658820
   61      H       1.3995616056     3.8247063637    -5.5826580672
   62      C      -0.0445915992     4.3971253323    -4.1116014146
   63      H       0.4053724964     5.3650732819    -3.9323049411
   64      C      -1.1821389206     3.9989104455    -3.4243416784
   65      C      -1.9765991115     4.6674921356    -2.3994016509
   66      C      -1.8411365858     5.9145815929    -1.8140598056
   67      H      -1.0479528456     6.5870494307    -2.1150484589
   68      C      -2.7411119964     6.2905259500    -0.8262833332
   69      H      -2.6497437008     7.2625083995    -0.3605771575
   70      C      -3.7541706880     5.4285164620    -0.4222577011
   71      H      -4.4388242219     5.7347404640     0.3572384411
   72      C      -3.8944098352     4.1775623414    -1.0074452779
   73      H      -4.6793906512     3.5099311221    -0.6770207717
   74      C      -3.0043642515     3.8079857352    -1.9984762144
   75      C       1.6278489985    -2.5404703112     0.9546646292
   76      H       2.3330079726    -3.1039037533     0.3410529238
   77      H       1.3994911513    -3.1272606430     1.8461930811
   78      H       0.7080368076    -2.4349450147     0.3800736383
 ----------------------------------------------------------------

    8   -1855.5093836811      7.91E-09 Convergence criterion met
 Total energy in the final basis set = -1855.50938368

         TDDFT/TDA Excitation Energies
 ---------------------------------------------------

 Excited state   1: excitation energy (eV) =    2.4923
 Total energy for state  1:                 -1855.41779469 au
    Multiplicity: Triplet
    Trans. Mom.:  0.0000 X   0.0000 Y   0.0000 Z
    Strength   :     0.0000000000
    D(150) --> V(  1) amplitude = -0.2231
    D(153) --> V(  1) amplitude = -0.5342
    D(154) --> V(  1) amplitude = -0.6409
    D(157) --> V(  1) amplitude =  0.3423

 Excited state   2: excitation energy (eV) =    3.3333
 Total energy for state  2:                 -1855.38688799 au
    Multiplicity: Triplet
    Trans. Mom.:  0.0000 X   0.0000 Y   0.0000 Z
    Strength   :     0.0000000000
    D(158) --> V(  1) amplitude =  0.9938

 Excited state   3: excitation energy (eV) =    3.3508
 Total energy for state  3:                 -1855.38624359 au
    Multiplicity: Triplet
    Trans. Mom.:  0.0000 X   0.0000 Y   0.0000 Z
    Strength   :     0.0000000000
    D(157) --> V(  1) amplitude =  0.2973
    D(157) --> V(  2) amplitude =  0.6971
    D(157) --> V(  3) amplitude =  0.3445

 ---------------------------------------------------

 Final energy is   -1855.41779469018
 **  OPTIMIZATION CONVERGED  **

                    Orbital Energies (a.u.)
 --------------------------------------------------------------

 Alpha MOs
 -- Occupied --
-14.678 -14.657 -14.655 -10.526 -10.525 -10.516 -10.511 -10.503
-10.501 -10.498 -10.497 -10.493 -10.491 -10.490 -10.490 -10.485
-10.479 -10.479 -10.477 -10.476 -10.475 -10.474 -10.471 -10.470
-10.469 -10.469 -10.468 -10.468 -10.468 -10.467 -10.465 -10.465
-10.464 -10.464 -10.463 -10.452 -10.452 -10.446 -10.445 -10.444
-10.443 -10.443 -10.440 -10.440 -10.437 -10.432 -10.429  -1.091
 -1.039  -1.027  -1.015  -0.996  -0.987  -0.970  -0.961  -0.959
 -0.936  -0.933  -0.912  -0.899  -0.891  -0.881  -0.859  -0.858
 -0.849  -0.846  -0.835  -0.827  -0.820  -0.812  -0.795  -0.776
 -0.774  -0.745  -0.731  -0.724  -0.716  -0.711  -0.702  -0.691
 -0.683  -0.677  -0.674  -0.672  -0.664  -0.642  -0.621  -0.615
 -0.613  -0.611  -0.595  -0.586  -0.582  -0.570  -0.566  -0.563
 -0.543  -0.541  -0.536  -0.535  -0.535  -0.529  -0.525  -0.522
 -0.518  -0.513  -0.511  -0.504  -0.504  -0.501  -0.497  -0.494
 -0.491  -0.491  -0.484  -0.482  -0.473  -0.468  -0.462  -0.451
 -0.447  -0.444  -0.440  -0.439  -0.437  -0.436  -0.435  -0.431
 -0.429  -0.428  -0.424  -0.423  -0.421  -0.417  -0.416  -0.414
 -0.410  -0.405  -0.400  -0.398  -0.394  -0.390  -0.388  -0.381
 -0.375  -0.360  -0.352  -0.333  -0.326  -0.314  -0.308  -0.300
 -0.291  -0.289  -0.289  -0.281  -0.272  -0.231

          Ground-State Mulliken Net Atomic Charges

     Atom                 Charge (a.u.)
  ----------------------------------------
      1 N                    -0.723537
      2 C                     0.304519
      3 C                     0.310466
      4 C                    -0.275602
      5 H                     0.237770
      6 C                    -0.237802
      7 H                     0.215856
      8 C                    -0.216011
      9 H                     0.213502
     10 C                    -0.329648
     11 H                     0.213542
     12 C                     0.169780
     13 C                    -0.291101
     14 H                     0.264656
     15 C                    -0.236420
     16 H                     0.214195
     17 C                    -0.218037
     18 H                     0.211629
     19 C                    -0.325896
     20 H                     0.213206
     21 C                     0.158552
     22 C                     0.265111
     23 C                    -0.325294
     24 H                     0.274767
     25 C                    -0.228213
     26 H                     0.236719
     27 C                    -0.296747
     28 H                     0.219163
     29 C                     0.222360
     30 C                     0.070566
     31 C                    -0.530054
     32 H                     0.250084
     33 H                     0.255636
     34 C                    -0.224791
     35 C                    -0.664904
     36 H                     0.228083
     37 H                     0.227829
     38 H                     0.239854
     39 C                    -0.527488
     40 H                     0.252625
     41 H                     0.257036
     42 C                     0.147437
     43 C                    -0.304038
     44 H                     0.247219
     45 C                     0.052351
     46 C                     0.001355
     47 N                    -0.163929
     48 C                     0.081313
     49 C                    -0.271806
     50 H                     0.280330
     51 C                     0.123879
     52 C                    -0.000105
     53 N                    -0.159928
     54 C                    -0.412004
     55 C                     0.025051
     56 C                    -0.253105
     57 H                     0.231765
     58 C                    -0.240247
     59 H                     0.232642
     60 C                    -0.211814
     61 H                     0.231501
     62 C                    -0.331267
     63 H                     0.216725
     64 C                     0.168602
     65 C                     0.141121
     66 C                    -0.319926
     67 H                     0.214110
     68 C                    -0.216450
     69 H                     0.230064
     70 C                    -0.221017
     71 H                     0.227932
     72 C                    -0.270100
     73 H                     0.216203
     74 C                     0.154742
     75 C                    -0.600817
     76 H                     0.223648
     77 H                     0.220316
     78 H                     0.232286
  ----------------------------------------
  Sum of atomic charges =     0.000000

                    Cartesian Multipole Moments
 -----------------------------------------------------------------
    Charge (ESU x 10^10)
                 0.0000
    Dipole Moment (Debye)
         X       3.1943      Y      -4.6529      Z       5.2168
       Tot       7.6856
    Quadrupole Moments (Debye-Ang)
        XX    -295.0575     XY      44.5141     YY    -291.5573
        XZ     -55.7447     YZ      45.0577     ZZ    -317.3891

 Total job time:  28188.41s(wall), 168088.43s(cpu)
        *  Thank you very much for using Q-Chem.  Have a nice day.  *
