 Q-Chem 5.0, Q-Chem, Inc., Pleasanton, CA (2017)
 Q-Chem 5.0.1 for Intel X86 EM64T Linux

User input:
--------------------------------------------------------------
$rem
threads 8
jobtype	opt
method PBEh-3c
basis def2-mSVP
mem_static	1024
mem_total	14000
sym_ignore	true
cis_n_roots             4
cis_singlets            false
cis_triplets		true
rpa                     false
cis_state_deriv         3
state_follow		true
$end

$molecule
read gsopt.mol
$end

--------------------------------------------------------------

   15   -1855.5319838414      7.51E-09 Convergence criterion met
 Total energy in the final basis set = -1855.53198384
   13   -1855.5292667089      5.20E-09 Convergence criterion met
 Total energy in the final basis set = -1855.52926671
   12   -1855.5244815432      7.64E-09 Convergence criterion met
 Total energy in the final basis set = -1855.52448154
   13   -1855.5212935927      4.12E-09 Convergence criterion met
 Total energy in the final basis set = -1855.52129359
   12   -1855.5198600604      8.99E-09 Convergence criterion met
 Total energy in the final basis set = -1855.51986006
   12   -1855.5193145022      9.18E-09 Convergence criterion met
 Total energy in the final basis set = -1855.51931450
   13   -1855.5191606347      4.10E-09 Convergence criterion met
 Total energy in the final basis set = -1855.51916063
   13   -1855.5188272928      4.20E-09 Convergence criterion met
   13   -1855.4799517167      8.66E-09 Convergence criterion met
 Total energy in the final basis set = -1855.47995172
   13   -1855.4878402200      6.49E-09 Convergence criterion met
 Total energy in the final basis set = -1855.48784022
   11   -1855.4861940912      4.29E-09 Convergence criterion met
 Total energy in the final basis set = -1855.48619409
   10   -1855.4870615217      6.91E-09 Convergence criterion met
 Total energy in the final basis set = -1855.48706152
    9   -1855.4869264753      7.23E-09 Convergence criterion met
 Total energy in the final basis set = -1855.48692648
    8   -1855.4869256996      9.72E-09 Convergence criterion met
 Total energy in the final basis set = -1855.48692570

             Standard Nuclear Orientation (Angstroms)
    I     Atom           X                Y                Z
 ----------------------------------------------------------------
    1      N       0.1740254322     0.3769437395     0.1658576770
    2      C       0.1190062214     0.7061758410     1.5149875325
    3      C       1.1986488337     1.3535321879     2.1296746552
    4      H       2.1099344371     1.5323201330     1.5771543336
    5      C       1.1126620689     1.7744454237     3.4396725467
    6      H       1.9557720336     2.2803163631     3.8910764236
    7      C      -0.0463709615     1.5492739029     4.1681404711
    8      H      -0.1295980886     1.8839777600     5.1930083310
    9      C      -1.0903394283     0.8606157417     3.5741252435
   10      H      -1.9771035154     0.6646081423     4.1624754986
   11      C      -1.0327291576     0.3992704282     2.2653614467
   12      C      -0.8955343321    -0.2390273697    -0.4625616523
   13      C      -0.7857239373    -0.5934987297    -1.8732711581
   14      H      -0.3999462791     0.1232801787    -2.5880377673
   15      C      -1.1851031312    -1.8196385747    -2.2777148273
   16      H      -1.1055774162    -2.0984270601    -3.3203234012
   17      C      -1.7568627613    -2.7362966347    -1.3419931440
   18      H      -2.0250494199    -3.7338020394    -1.6606296834
   19      C      -2.0818215756    -2.3084555643    -0.0301052061
   20      H      -2.6606687665    -2.9775229275     0.5951097317
   21      C      -1.7393947932    -1.0671173072     0.4069067989
   22      C       1.3524612287     0.5642323188    -0.5951317762
   23      C       2.0153232977    -0.5601971692    -1.0629237746
   24      H       1.6392880765    -1.5244109597    -0.7511529299
   25      C       1.7717830865     1.8255131018    -0.9850748117
   26      H       1.2440851596     2.7085140283    -0.6493248789
   27      C       2.8680831424     1.9233667749    -1.8185707593
   28      H       3.2152330796     2.9045458088    -2.1182328607
   29      C       3.1029436916    -0.4726070867    -1.9267181380
   30      C       3.5387205001     0.8013749287    -2.3027128781
   31      C       4.7704557592     1.0172649477    -3.1251897271
   32      H       4.9551929238     2.0885505079    -3.2140763942
   33      H       4.6569523510     0.6462100000    -4.1480062808
   34      C      -2.1886776113    -0.4084562206     1.6802791862
   35      C      -2.7144075216    -1.4341920878     2.6834902063
   36      H      -3.5438160002    -1.9951060327     2.2521743975
   37      H      -3.1011572740    -0.9586299950     3.5831498646
   38      H      -1.9373272484    -2.1393202859     2.9782480208
   39      C       5.9723592741     0.3421873225    -2.4679758617
   40      H       6.8868129032     0.8748643561    -2.7333389824
   41      H       5.8811272759     0.4162394027    -1.3809298433
   42      C       6.1168523491    -1.0858488520    -2.9011384958
   43      C       7.3933132239    -1.4945836194    -3.2912411477
   44      H       8.2149021102    -0.7957130318    -3.2030626523
   45      C       7.6476236430    -2.7528573657    -3.8011166541
   46      C       6.5753350961    -3.6395754182    -3.9488372141
   47      C       5.3134582599    -3.2431297495    -3.5518779386
   48      H       4.5080008144    -3.9546824714    -3.6705711809
   49      C       5.0508221187    -1.9841799985    -3.0043216658
   50      C       8.9716498711    -3.1171255448    -4.1820636822
   51      N      10.0474513650    -3.3935687029    -4.4834500668
   52      C       6.7618102192    -4.9446462602    -4.4936765322
   53      N       6.8914554902    -6.0014991981    -4.9303077886
   54      C       3.5972407863    -1.7974672590    -2.5283431421
   55      C       2.6311182473    -2.1421808715    -3.6617902992
   56      C       2.4101869798    -1.4596835602    -4.8413941987
   57      H       2.9453812612    -0.5469212958    -5.0701483280
   58      C       1.4838679472    -1.9641372419    -5.7461733585
   59      H       1.3055584300    -1.4423353120    -6.6769519124
   60      C       0.7913222607    -3.1378709893    -5.4723586797
   61      H       0.0812312490    -3.5219611230    -6.1928290642
   62      C       1.0052471022    -3.8198827474    -4.2840850131
   63      H       0.4633284755    -4.7332143590    -4.0719087621
   64      C       1.9224089243    -3.3100369193    -3.3778411639
   65      C       2.3500653528    -3.8118910269    -2.0787635613
   66      C       1.9568869877    -4.9333829447    -1.3643931662
   67      H       1.2010925619    -5.6041786490    -1.7528473974
   68      C       2.5537461504    -5.1825298882    -0.1381959983
   69      H       2.2602561839    -6.0520706551     0.4345785702
   70      C       3.5288433098    -4.3268606292     0.3631565419
   71      H       3.9855044708    -4.5381053897     1.3206954179
   72      C       3.9227869158    -3.2048455585    -0.3543685502
   73      H       4.6825842009    -2.5411617171     0.0389700690
   74      C       3.3235632273    -2.9542399043    -1.5712715162
   75      C      -3.3317948176     0.5610496573     1.3049146976
   76      H      -3.0185369899     1.2629185205     0.5317264035
   77      H      -4.1901356593     0.0029727635     0.9278357177
   78      H      -3.6509982826     1.1380579365     2.1742515789
 ----------------------------------------------------------------

    9   -1855.4869291040      3.78E-09 Convergence criterion met
 Total energy in the final basis set = -1855.48692910

         TDDFT/TDA Excitation Energies
 ---------------------------------------------------

 Excited state   1: excitation energy (eV) =    2.1433
 Total energy for state  1:                 -1855.40816476 au
    Multiplicity: Triplet
    Trans. Mom.:  0.0000 X   0.0000 Y   0.0000 Z
    Strength   :     0.0000000000
    D(158) --> V(  3) amplitude = -0.2194
    D(158) --> V(  4) amplitude =  0.6774
    D(158) --> V(  5) amplitude =  0.5685

 Excited state   2: excitation energy (eV) =    3.3721
 Total energy for state  2:                 -1855.36300540 au
    Multiplicity: Triplet
    Trans. Mom.:  0.0000 X   0.0000 Y   0.0000 Z
    Strength   :     0.0000000000
    D(157) --> V(  2) amplitude = -0.3897
    D(157) --> V(  3) amplitude = -0.6934
    D(157) --> V(  4) amplitude = -0.2722

 Excited state   3: excitation energy (eV) =    3.4015
 Total energy for state  3:                 -1855.36192600 au
    Multiplicity: Triplet
    Trans. Mom.:  0.0000 X   0.0000 Y   0.0000 Z
    Strength   :     0.0000000000
    D(158) --> V(  1) amplitude =  0.9907

 Excited state   4: excitation energy (eV) =    3.4640
 Total energy for state  4:                 -1855.35963120 au
    Multiplicity: Triplet
    Trans. Mom.:  0.0000 X   0.0000 Y   0.0000 Z
    Strength   :     0.0000000000
    D(148) --> V(  1) amplitude = -0.2960
    D(149) --> V(  1) amplitude = -0.2387
    D(149) --> V(  2) amplitude = -0.2572
    D(150) --> V(  1) amplitude = -0.4418
    D(151) --> V(  1) amplitude =  0.2546
    D(152) --> V(  1) amplitude = -0.4706
    D(157) --> V(  1) amplitude = -0.2883

 ---------------------------------------------------

 Final energy is   -1855.40816475552
 **  OPTIMIZATION CONVERGED  **

                    Orbital Energies (a.u.)
 --------------------------------------------------------------

 Alpha MOs
 -- Occupied --
-14.688 -14.655 -14.652 -10.520 -10.518 -10.510 -10.506 -10.502
-10.500 -10.499 -10.499 -10.497 -10.496 -10.491 -10.490 -10.485
-10.477 -10.476 -10.473 -10.472 -10.472 -10.471 -10.470 -10.469
-10.467 -10.466 -10.465 -10.465 -10.464 -10.464 -10.464 -10.464
-10.462 -10.462 -10.461 -10.455 -10.453 -10.447 -10.446 -10.445
-10.445 -10.444 -10.443 -10.441 -10.440 -10.431 -10.427  -1.099
 -1.040  -1.028  -1.018  -1.002  -0.987  -0.967  -0.962  -0.952
 -0.937  -0.932  -0.908  -0.896  -0.890  -0.884  -0.859  -0.855
 -0.849  -0.843  -0.835  -0.824  -0.821  -0.804  -0.792  -0.772
 -0.770  -0.745  -0.730  -0.725  -0.714  -0.712  -0.705  -0.692
 -0.681  -0.676  -0.671  -0.667  -0.664  -0.645  -0.619  -0.616
 -0.610  -0.607  -0.594  -0.584  -0.580  -0.573  -0.567  -0.560
 -0.547  -0.539  -0.536  -0.532  -0.528  -0.523  -0.522  -0.520
 -0.516  -0.510  -0.504  -0.503  -0.502  -0.500  -0.497  -0.492
 -0.491  -0.487  -0.484  -0.482  -0.476  -0.470  -0.459  -0.453
 -0.449  -0.446  -0.442  -0.438  -0.436  -0.435  -0.434  -0.433
 -0.427  -0.424  -0.423  -0.423  -0.422  -0.415  -0.413  -0.411
 -0.410  -0.402  -0.398  -0.397  -0.396  -0.394  -0.392  -0.379
 -0.371  -0.363  -0.347  -0.337  -0.320  -0.313  -0.310  -0.303
 -0.296  -0.290  -0.286  -0.280  -0.269  -0.211

          Ground-State Mulliken Net Atomic Charges

     Atom                 Charge (a.u.)
  ----------------------------------------
      1 N                    -0.627494
      2 C                     0.340427
      3 C                    -0.311052
      4 H                     0.246355
      5 C                    -0.228175
      6 H                     0.216676
      7 C                    -0.227100
      8 H                     0.213588
      9 C                    -0.291825
     10 H                     0.208850
     11 C                     0.136495
     12 C                     0.205453
     13 C                    -0.319432
     14 H                     0.247092
     15 C                    -0.196120
     16 H                     0.233199
     17 C                    -0.256348
     18 H                     0.205676
     19 C                    -0.291958
     20 H                     0.213347
     21 C                     0.106427
     22 C                     0.233466
     23 C                    -0.273189
     24 H                     0.286727
     25 C                    -0.248560
     26 H                     0.246109
     27 C                    -0.302901
     28 H                     0.217073
     29 C                     0.187104
     30 C                     0.088412
     31 C                    -0.541409
     32 H                     0.250921
     33 H                     0.247984
     34 C                    -0.211420
     35 C                    -0.643218
     36 H                     0.221401
     37 H                     0.225205
     38 H                     0.239392
     39 C                    -0.519670
     40 H                     0.247560
     41 H                     0.261481
     42 C                     0.079534
     43 C                    -0.320273
     44 H                     0.246821
     45 C                     0.078496
     46 C                     0.077767
     47 C                    -0.272524
     48 H                     0.282849
     49 C                     0.247926
     50 C                    -0.007845
     51 N                    -0.155077
     52 C                    -0.008939
     53 N                    -0.155931
     54 C                    -0.437475
     55 C                     0.162501
     56 C                    -0.283641
     57 H                     0.218561
     58 C                    -0.221907
     59 H                     0.227845
     60 C                    -0.225358
     61 H                     0.230038
     62 C                    -0.317312
     63 H                     0.214419
     64 C                     0.138976
     65 C                     0.158566
     66 C                    -0.322414
     67 H                     0.210299
     68 C                    -0.212651
     69 H                     0.228431
     70 C                    -0.227415
     71 H                     0.228810
     72 C                    -0.258568
     73 H                     0.221417
     74 C                     0.052621
     75 C                    -0.584960
     76 H                     0.232313
     77 H                     0.222032
     78 H                     0.215518
  ----------------------------------------
  Sum of atomic charges =    -0.000000

                    Cartesian Multipole Moments
 -----------------------------------------------------------------
    Charge (ESU x 10^10)
                -0.0000
    Dipole Moment (Debye)
         X      -5.0837      Y       5.1722      Z       2.6681
       Tot       7.7276
    Quadrupole Moments (Debye-Ang)
        XX    -338.1546     XY      66.6610     YY    -288.7996
        XZ      40.7138     YZ     -34.2359     ZZ    -276.4840

 Total job time:  73667.52s(wall), 440891.16s(cpu)
        *  Thank you very much for using Q-Chem.  Have a nice day.  *
