 Q-Chem 5.1, Q-Chem, Inc., Pleasanton, CA (2018)
 Q-Chem 5.1.1 for Intel X86 EM64T Linux

User input:
--------------------------------------------------------------
$rem
threads 4
jobtype opt
method PBEh-3c
basis def2-mSVP
mem_static      1024
mem_total       4000
sym_ignore      true
unrestricted true
scf_algorithm	diis
scf_max_cycles	250
solvent_method  pcm
geom_opt_tol_energy 25
geom_opt_tol_gradient 75
$end

$pcm
theory  iefpcm
$end

$solvent
dielectric      2.38
$end

$molecule
read ANDBA_an.mol
$end
--------------------------------------------------------------

   19   -1277.2718612814      6.91e-09  Convergence criterion met
 Total energy in the final basis set =    -1277.2718612814
   17   -1277.2948469810      6.10e-09  Convergence criterion met
 Total energy in the final basis set =    -1277.2948469810
   16   -1277.2974515201      8.95e-09  Convergence criterion met
 Total energy in the final basis set =    -1277.2974515201
   16   -1277.2973448710      8.04e-09  Convergence criterion met
 Total energy in the final basis set =    -1277.2973448710
   15   -1277.2974833241      8.56e-09  Convergence criterion met
 Total energy in the final basis set =    -1277.2974833241
   16   -1277.2974917520      8.12e-09  Convergence criterion met
 Total energy in the final basis set =    -1277.2974917520
   16   -1277.2974867474      8.21e-09  Convergence criterion met
 Total energy in the final basis set =    -1277.2974867474

             Standard Nuclear Orientation (Angstroms)
    I     Atom           X                Y                Z
 ----------------------------------------------------------------
    1      C      -6.2173553962     4.0060527375     1.7087874073
    2      C      -6.7501045905     2.7047040824     1.9758851001
    3      B      -5.8715227603     1.4639260715     1.8243056777
    4      C      -4.4277882504     1.6034214150     1.3452349198
    5      C      -3.8728730520     2.8996360303     1.0998260274
    6      B      -4.7457795713     4.1478819065     1.2955967569
    7      C      -2.5455269175     2.9966317060     0.6315175944
    8      C      -1.7985279780     1.8653638625     0.3873178393
    9      C      -2.3681575860     0.5762817016     0.6166804905
   10      C      -3.6491782022     0.4591925796     1.0973468275
   11      C      -7.0737870788     5.1252686374     1.7874713170
   12      C      -8.4057029881     4.9739959622     2.1042524827
   13      C      -8.9226729230     3.6727842051     2.3841450995
   14      C      -8.1057228346     2.5713507287     2.3238467170
   15      H      -6.6711869845     6.1105100661     1.5731723005
   16      C      -0.4513108785     1.6638867372    -0.1448636729
   17      C     -10.3487315153     3.7926651428     2.6569219265
   18      C     -11.3598704072     2.9124355154     2.9617770896
   19      C       1.7506175266     1.8872078878    -1.0682573835
   20      C       1.9237933443     0.5237274575    -1.1512179159
   21      C       0.8892107535    -0.3455354514    -0.7261421623
   22      C     -12.9708932139     4.7530159869     2.9958469240
   23      C     -12.6688550425     3.4164781680     3.1304403597
   24      H     -13.4638277229     2.7206658952     3.3694641005
   25      H       2.8468786953     0.1173486044    -1.5470112940
   26      C      -0.2585372574     0.2673404781    -0.2300796553
   27      H      -4.0831745453    -0.5209032353     1.2717201511
   28      C       0.5670083809     2.4807822939    -0.5714733820
   29      H       2.5503962530     2.5363567946    -1.4024110738
   30      H       0.4813063484     3.5597877556    -0.5404335813
   31      H      -2.1261936107     3.9802619305     0.4441638986
   32      C      -1.3967628407    -0.4335962842     0.2192015164
   33      C       0.8768515495    -1.7628677788    -0.7628858294
   34      C      -0.2319757072    -2.4543880521    -0.3277465307
   35      C      -1.3858759996    -1.8073154961     0.1684077698
   36      H      -0.2249006047    -3.5367670418    -0.3703686389
   37      H      -2.2362337955    -2.3971482887     0.4888544291
   38      H      -8.5049665251     1.5811992477     2.5232978041
   39      H     -11.1784274613     1.8498942660     3.0682656304
   40      C     -10.6643543112     5.1595678057     2.5262512095
   41      C      -9.5213552022     5.9188525169     2.1929775237
   42      C      -9.6846456827     7.2706151500     2.0079648070
   43      C     -10.9754616389     7.8292485434     2.1605515259
   44      C     -12.0814600630     7.0762375588     2.4844819040
   45      C     -11.9480841279     5.6802695684     2.6785560313
   46      H     -11.0946600959     8.8951456225     2.0108955794
   47      H     -13.0513001953     7.5486667857     2.5857212819
   48      H      -8.8542400908     7.9133048450     1.7436108454
   49      H     -13.9911144948     5.0938987386     3.1269655161
   50      H       1.7367552445    -2.3034092488    -1.1401892282
   51      H      -6.3309355189     0.3702381429     2.0497915131
   52      H      -4.2814924333     5.2431497454     1.0905344535
 ----------------------------------------------------------------

   17   -1277.2974835918      4.16e-09  Convergence criterion met
 Total energy in the final basis set =    -1277.2974835918
 Final energy is   -1277.29748359178
 **  OPTIMIZATION CONVERGED  **

                    Orbital Energies (a.u.)
 --------------------------------------------------------------

 Alpha MOs
 -- Occupied --
-10.422 -10.421 -10.417 -10.417 -10.417 -10.417 -10.416 -10.416
-10.416 -10.416 -10.416 -10.416 -10.415 -10.415 -10.415 -10.415
-10.414 -10.414 -10.402 -10.402 -10.401 -10.401 -10.399 -10.399
-10.395 -10.395 -10.393 -10.393 -10.364 -10.364 -10.362 -10.362
 -6.854  -6.852  -0.965  -0.965  -0.905  -0.904  -0.888  -0.887
 -0.850  -0.843  -0.802  -0.801  -0.800  -0.800  -0.764  -0.761
 -0.759  -0.747  -0.681  -0.681  -0.679  -0.669  -0.640  -0.630
 -0.624  -0.609  -0.594  -0.589  -0.548  -0.547  -0.540  -0.539
 -0.533  -0.524  -0.523  -0.492  -0.483  -0.478  -0.473  -0.455
 -0.452  -0.449  -0.439  -0.439  -0.438  -0.438  -0.437  -0.436
 -0.431  -0.424  -0.414  -0.412  -0.395  -0.387  -0.379  -0.379
 -0.372  -0.365  -0.353  -0.352  -0.351  -0.348  -0.342  -0.337
 -0.320  -0.311  -0.308  -0.297  -0.281  -0.275  -0.271  -0.265
 -0.255  -0.254  -0.233  -0.219  -0.207  -0.200  -0.109

 Beta MOs
 -- Occupied --
-10.422 -10.422 -10.418 -10.418 -10.418 -10.418 -10.417 -10.416
-10.415 -10.415 -10.415 -10.415 -10.415 -10.415 -10.414 -10.414
-10.414 -10.414 -10.401 -10.401 -10.400 -10.399 -10.397 -10.397
-10.396 -10.396 -10.394 -10.394 -10.364 -10.364 -10.362 -10.362
 -6.852  -6.849  -0.965  -0.965  -0.904  -0.903  -0.887  -0.887
 -0.849  -0.842  -0.801  -0.800  -0.799  -0.799  -0.761  -0.760
 -0.759  -0.745  -0.680  -0.679  -0.678  -0.668  -0.640  -0.629
 -0.620  -0.607  -0.594  -0.589  -0.547  -0.546  -0.538  -0.537
 -0.532  -0.523  -0.521  -0.491  -0.483  -0.478  -0.470  -0.454
 -0.450  -0.448  -0.439  -0.439  -0.438  -0.437  -0.435  -0.435
 -0.431  -0.424  -0.414  -0.410  -0.394  -0.386  -0.378  -0.374
 -0.368  -0.364  -0.351  -0.350  -0.349  -0.348  -0.341  -0.336
 -0.312  -0.309  -0.305  -0.296  -0.280  -0.272  -0.265  -0.261
 -0.251  -0.251  -0.221  -0.211  -0.204  -0.192

          Ground-State Mulliken Net Atomic Charges

     Atom                 Charge (a.u.)    Spin (a.u.)
  --------------------------------------------------------
      1 C                    -0.082361       0.042748
      2 C                    -0.081414       0.042745
      3 B                     0.020289       0.288655
      4 C                    -0.080152       0.042469
      5 C                    -0.083247       0.042986
      6 B                     0.021785       0.290764
      7 C                    -0.405264      -0.048475
      8 C                     0.084649       0.073604
      9 C                     0.064005       0.075400
     10 C                    -0.396949      -0.049609
     11 C                    -0.406273      -0.047660
     12 C                     0.085167       0.072706
     13 C                     0.062675       0.075877
     14 C                    -0.395570      -0.049942
     15 H                     0.196547       0.001865
     16 C                     0.184961      -0.052739
     17 C                     0.186115      -0.053711
     18 C                    -0.399078       0.088156
     19 C                    -0.215640      -0.054927
     20 C                    -0.363105       0.082373
     21 C                     0.238244      -0.043634
     22 C                    -0.360065       0.083835
     23 C                    -0.217728      -0.055337
     24 H                     0.223040       0.002711
     25 H                     0.217410      -0.004938
     26 C                    -0.081284       0.026113
     27 H                     0.196378       0.001950
     28 C                    -0.404589       0.086713
     29 H                     0.222790       0.002695
     30 H                     0.219803      -0.005140
     31 H                     0.196434       0.001906
     32 C                     0.185612      -0.053881
     33 C                    -0.360620       0.084338
     34 C                    -0.217579      -0.055628
     35 C                    -0.398754       0.088471
     36 H                     0.223067       0.002725
     37 H                     0.219873      -0.005239
     38 H                     0.196442       0.001960
     39 H                     0.219541      -0.005225
     40 C                    -0.080156       0.025931
     41 C                     0.185890      -0.052291
     42 C                    -0.406865       0.086010
     43 C                    -0.215056      -0.054507
     44 C                    -0.362939       0.081430
     45 C                     0.238485      -0.043345
     46 H                     0.222711       0.002676
     47 H                     0.217553      -0.004878
     48 H                     0.219716      -0.005101
     49 H                     0.217212      -0.005035
     50 H                     0.217061      -0.005064
     51 H                     0.014900      -0.021768
     52 H                     0.016333      -0.021736
  --------------------------------------------------------
  Sum of atomic charges =    -1.000000

                    Cartesian Multipole Moments
 -----------------------------------------------------------------
    Charge (ESU x 10^10)
                -4.8032
    Dipole Moment (Debye)
         X      25.6218      Y     -13.3781      Z      -7.1071
       Tot      29.7652
    Quadrupole Moments (Debye-Ang)
        XX    -367.8428     XY      92.0338     YY    -231.5166
        XZ      42.0940     YZ     -27.1296     ZZ    -223.4199

 Total job time:  7058.19s(wall), 26240.01s(cpu)
        *  Thank you very much for using Q-Chem.  Have a nice day.  *
