 Q-Chem 5.1, Q-Chem, Inc., Pleasanton, CA (2018)
 Q-Chem 5.1.1 for Intel X86 EM64T Linux

User input:
--------------------------------------------------------------
$rem
threads 4
jobtype	opt
method PBEh-3c
basis def2-mSVP
mem_static	1024
mem_total	3000
sym_ignore	true
scf_convergence	9
solvent_method	pcm
$end

$molecule
read ANDBA.mol
$end

$solvent
dielectric	2.38
$end

$pcm
theory iefpcm
$end

--------------------------------------------------------------

   16   -1277.1732566057      7.08e-10  Convergence criterion met
 Total energy in the final basis set =    -1277.1732566057
   14   -1277.1934818490      6.38e-10  Convergence criterion met
 Total energy in the final basis set =    -1277.1934818490
   14   -1277.1948834675      8.04e-10  Convergence criterion met
 Total energy in the final basis set =    -1277.1948834675
   14   -1277.1946150152      8.41e-10  Convergence criterion met
 Total energy in the final basis set =    -1277.1946150152
   14   -1277.1947763197      7.42e-10  Convergence criterion met
 Total energy in the final basis set =    -1277.1947763197
   14   -1277.1947399359      7.30e-10  Convergence criterion met
 Total energy in the final basis set =    -1277.1947399359
   14   -1277.1946874164      7.34e-10  Convergence criterion met
 Total energy in the final basis set =    -1277.1946874164
   14   -1277.1946419180      7.35e-10  Convergence criterion met
 Total energy in the final basis set =    -1277.1946419180

             Standard Nuclear Orientation (Angstroms)
    I     Atom           X                Y                Z
 ----------------------------------------------------------------
    1      C      -6.1986464976     4.0188479673     1.8272336889
    2      C      -6.7230837278     2.7308772579     2.1054406886
    3      B      -5.8213551784     1.4860391939     1.9774960130
    4      C      -4.3734768702     1.6133991611     1.4621222948
    5      C      -3.8217235724     2.8970545095     1.2198782440
    6      B      -4.7048197354     4.1534951454     1.4353608381
    7      C      -2.5175762233     3.0071112520     0.7287326700
    8      C      -1.7855564986     1.8632464907     0.4436940138
    9      C      -2.3543684632     0.5886723702     0.6631234529
   10      C      -3.6286551642     0.4681330381     1.1876423698
   11      C      -7.0432805488     5.1329065605     1.8629207489
   12      C      -8.3918235867     4.9711948371     2.1469220181
   13      C      -8.9003548704     3.6852682658     2.4367446462
   14      C      -8.0706232099     2.5793679344     2.4258548309
   15      H      -6.6433414025     6.1169315167     1.6454860318
   16      C      -0.4528520842     1.6636454192    -0.1330535024
   17      C     -10.3384417185     3.7933394743     2.6653739898
   18      C     -11.3442152659     2.9070270002     2.9528663983
   19      C       1.7162628533     1.8897245224    -1.1223829433
   20      C       1.8693553876     0.5276951744    -1.2411619727
   21      C       0.8411213384    -0.3411424064    -0.8023774318
   22      C     -12.9732058655     4.7280387364     2.8927515692
   23      C     -12.6656316146     3.3985027586     3.0668825339
   24      H     -13.4602693976     2.6994766459     3.2932327742
   25      H       2.7743491061     0.1218781082    -1.6763851129
   26      C      -0.2798830184     0.2710417418    -0.2533778936
   27      H      -4.0607191611    -0.5108101719     1.3649617980
   28      C       0.5531777149     2.4820348613    -0.5732994891
   29      H       2.5106058144     2.5383549036    -1.4674023740
   30      H       0.4793135419     3.5607090347    -0.5166627623
   31      H      -2.0939043513     3.9884079913     0.5472996532
   32      C      -1.4071596215    -0.4274952837     0.2142353087
   33      C       0.8077985938    -1.7559712264    -0.8747935729
   34      C      -0.2930780192    -2.4467992002    -0.4224084020
   35      C      -1.4215283517    -1.7956235203     0.1290172999
   36      H      -0.3025457631    -3.5267493120    -0.4936609561
   37      H      -2.2686122548    -2.3831111495     0.4617760805
   38      H      -8.4677508799     1.5929412000     2.6397284738
   39      H     -11.1559157296     1.8490248741     3.0876521879
   40      C     -10.6596776559     5.1503382900     2.4948677184
   41      C      -9.5178204978     5.9126938461     2.1817449829
   42      C      -9.6819365468     7.2546348911     1.9584369806
   43      C     -10.9831464376     7.8064193181     2.0539272312
   44      C     -12.0898814667     7.0485637975     2.3584721875
   45      C     -11.9508942794     5.6597162761     2.5907589995
   46      H     -11.1065433890     8.8663383234     1.8746400222
   47      H     -13.0666619126     7.5132829720     2.4148122421
   48      H      -8.8494877833     7.8992896987     1.7063191023
   49      H     -14.0004834174     5.0601649408     2.9814919644
   50      H       1.6470445381    -2.2970680275    -1.2944019229
   51      H      -6.2649971411     0.4045894776     2.2420200463
   52      H      -4.2358097147     5.2416705198     1.2584162412
 ----------------------------------------------------------------

   14   -1277.1946335391      7.09e-10  Convergence criterion met
 Total energy in the final basis set =    -1277.1946335391
 Final energy is   -1277.19463353913
 **  OPTIMIZATION CONVERGED  **

                    Orbital Energies (a.u.)
 --------------------------------------------------------------

 Alpha MOs
 -- Occupied --
-10.467 -10.467 -10.466 -10.466 -10.465 -10.465 -10.465 -10.465
-10.465 -10.465 -10.463 -10.463 -10.462 -10.462 -10.462 -10.462
-10.461 -10.461 -10.459 -10.459 -10.459 -10.459 -10.459 -10.458
-10.457 -10.456 -10.448 -10.448 -10.436 -10.436 -10.434 -10.433
 -6.948  -6.945  -1.018  -1.017  -0.963  -0.961  -0.934  -0.934
 -0.910  -0.902  -0.857  -0.856  -0.848  -0.847  -0.823  -0.815
 -0.813  -0.806  -0.736  -0.730  -0.727  -0.721  -0.690  -0.681
 -0.680  -0.666  -0.652  -0.649  -0.598  -0.596  -0.592  -0.589
 -0.583  -0.576  -0.574  -0.544  -0.536  -0.528  -0.526  -0.510
 -0.509  -0.503  -0.501  -0.494  -0.494  -0.486  -0.486  -0.486
 -0.478  -0.472  -0.468  -0.463  -0.447  -0.441  -0.435  -0.431
 -0.426  -0.424  -0.399  -0.396  -0.396  -0.396  -0.395  -0.391
 -0.380  -0.379  -0.373  -0.354  -0.353  -0.345  -0.323  -0.316
 -0.297  -0.296  -0.283  -0.265  -0.258  -0.257

          Ground-State Mulliken Net Atomic Charges

     Atom                 Charge (a.u.)
  ----------------------------------------
      1 C                    -0.107524
      2 C                    -0.106517
      3 B                     0.219044
      4 C                    -0.105266
      5 C                    -0.108260
      6 B                     0.222354
      7 C                    -0.386631
      8 C                     0.098416
      9 C                     0.077267
     10 C                    -0.378517
     11 C                    -0.387667
     12 C                     0.099043
     13 C                     0.075994
     14 C                    -0.377431
     15 H                     0.223294
     16 C                     0.189857
     17 C                     0.191121
     18 C                    -0.380195
     19 C                    -0.218279
     20 C                    -0.343061
     21 C                     0.237427
     22 C                    -0.339809
     23 C                    -0.220337
     24 H                     0.243564
     25 H                     0.239022
     26 C                    -0.061751
     27 H                     0.223148
     28 C                    -0.385846
     29 H                     0.243320
     30 H                     0.234723
     31 H                     0.223237
     32 C                     0.190577
     33 C                    -0.340310
     34 C                    -0.220151
     35 C                    -0.379746
     36 H                     0.243608
     37 H                     0.234603
     38 H                     0.223179
     39 H                     0.234210
     40 C                    -0.060681
     41 C                     0.191031
     42 C                    -0.388327
     43 C                    -0.217735
     44 C                    -0.343212
     45 C                     0.237923
     46 H                     0.243237
     47 H                     0.239073
     48 H                     0.234566
     49 H                     0.238859
     50 H                     0.238806
     51 H                     0.032547
     52 H                     0.034201
  ----------------------------------------
  Sum of atomic charges =    -0.000000

                    Cartesian Multipole Moments
 -----------------------------------------------------------------
    Charge (ESU x 10^10)
                -0.0000
    Dipole Moment (Debye)
         X      -0.3716      Y      -0.1926      Z      -1.0625
       Tot       1.1419
    Quadrupole Moments (Debye-Ang)
        XX    -134.7828     XY     -13.0862     YY    -157.6654
        XZ     -13.9821     YZ      -2.5789     ZZ    -203.3191

 Total job time:  7234.96s(wall), 26747.54s(cpu)
        *  Thank you very much for using Q-Chem.  Have a nice day.  *
