 Q-Chem 5.1, Q-Chem, Inc., Pleasanton, CA (2018)
 Q-Chem 5.1.1 for Intel X86 EM64T Linux

User input:
--------------------------------------------------------------
$rem
threads 4
jobtype	opt
method PBEh-3c
basis def2-mSVP
mem_static	1024
mem_total	3000
sym_ignore	true
scf_convergence	9
solvent_method	pcm
$end

$molecule
read ANDBA.mol
$end

$solvent
dielectric	1.0001
$end

$pcm
theory iefpcm
$end

--------------------------------------------------------------

   17   -1277.1645519653      4.36e-10  Convergence criterion met
 Total energy in the final basis set =    -1277.1645519653
   15   -1277.1851584869      4.61e-10  Convergence criterion met
 Total energy in the final basis set =    -1277.1851584869
   14   -1277.1866308818      4.19e-10  Convergence criterion met
 Total energy in the final basis set =    -1277.1866308818
   13   -1277.1863498764      5.84e-10  Convergence criterion met
 Total energy in the final basis set =    -1277.1863498764
   12   -1277.1865238450      6.26e-10  Convergence criterion met
 Total energy in the final basis set =    -1277.1865238450
   12   -1277.1864891206      4.72e-10  Convergence criterion met
 Total energy in the final basis set =    -1277.1864891206
   11   -1277.1864432824      7.51e-10  Convergence criterion met
 Total energy in the final basis set =    -1277.1864432824
   11   -1277.1864082865      5.67e-10  Convergence criterion met
 Total energy in the final basis set =    -1277.1864082865

             Standard Nuclear Orientation (Angstroms)
    I     Atom           X                Y                Z
 ----------------------------------------------------------------
    1      C      -6.2001815320     4.0185128583     1.8212440339
    2      C      -6.7243183600     2.7311897857     2.0989706631
    3      B      -5.8232820122     1.4859463189     1.9703470958
    4      C      -4.3749326922     1.6139551652     1.4564767272
    5      C      -3.8235311228     2.8968454783     1.2141073526
    6      B      -4.7066168636     4.1536707947     1.4281988141
    7      C      -2.5191560041     3.0060276491     0.7244049443
    8      C      -1.7863743632     1.8630379049     0.4412217794
    9      C      -2.3548317425     0.5890570252     0.6610527721
   10      C      -3.6291967723     0.4693603369     1.1836270196
   11      C      -7.0448532166     5.1320325632     1.8588714622
   12      C      -8.3924539992     4.9711581704     2.1446769928
   13      C      -8.9006893055     3.6856148819     2.4337355147
   14      C      -8.0712778168     2.5804288651     2.4205070152
   15      H      -6.6430719254     6.1151830578     1.6412860622
   16      C      -0.4527531166     1.6629431567    -0.1335528742
   17      C     -10.3384970608     3.7938981567     2.6645281737
   18      C     -11.3439090965     2.9083777505     2.9523605352
   19      C       1.7175610124     1.8881820236    -1.1194780498
   20      C       1.8711428957     0.5268892010    -1.2365680565
   21      C       0.8429860093    -0.3417571444    -0.7987304314
   22      C     -12.9722192450     4.7283892716     2.8973428399
   23      C     -12.6647819363     3.3993409080     3.0690447797
   24      H     -13.4592436415     2.7003066704     3.2956688418
   25      H       2.7770122470     0.1213122349    -1.6699766632
   26      C      -0.2787002317     0.2705304911    -0.2524115814
   27      H      -4.0631045511    -0.5084484128     1.3621104705
   28      C       0.5536530432     2.4801470595    -0.5729466311
   29      H       2.5122961902     2.5365318774    -1.4639203834
   30      H       0.4793749314     3.5587593535    -0.5175209760
   31      H      -2.0974589386     3.9881439001     0.5433229673
   32      C      -1.4065493690    -0.4272238131     0.2143781719
   33      C       0.8099578209    -1.7562221442    -0.8693192096
   34      C      -0.2907454425    -2.4464260921    -0.4180517323
   35      C      -1.4196773852    -1.7947446663     0.1305918659
   36      H      -0.2996194491    -3.5264051579    -0.4879454750
   37      H      -2.2670462075    -2.3820280636     0.4626496489
   38      H      -8.4663801251     1.5930924338     2.6335016136
   39      H     -11.1555862877     1.8502791541     3.0855247408
   40      C     -10.6602302161     5.1508433740     2.4963811547
   41      C      -9.5185197894     5.9127336439     2.1824239882
   42      C      -9.6834263482     7.2542660249     1.9615731644
   43      C     -10.9837421913     7.8064620330     2.0598576640
   44      C     -12.0894768048     7.0489299539     2.3651050953
   45      C     -11.9507577703     5.6601771287     2.5951220428
   46      H     -11.1072852412     8.8665772979     1.8822339037
   47      H     -13.0658161140     7.5141339378     2.4236145362
   48      H      -8.8513294355     7.8989729377     1.7088369018
   49      H     -13.9993345528     5.0601792249     2.9882245382
   50      H       1.6497551737    -2.2979134485    -1.2868605590
   51      H      -6.2674457676     0.4043273978     2.2333426357
   52      H      -4.2380452803     5.2417414900     1.2497840993
 ----------------------------------------------------------------

    9   -1277.1864005954      7.28e-10  Convergence criterion met
 Total energy in the final basis set =    -1277.1864005954
 Final energy is   -1277.18640059538
 **  OPTIMIZATION CONVERGED  **

                    Orbital Energies (a.u.)
 --------------------------------------------------------------

 Alpha MOs
 -- Occupied --
-10.466 -10.466 -10.466 -10.466 -10.465 -10.465 -10.465 -10.465
-10.463 -10.463 -10.463 -10.463 -10.463 -10.463 -10.463 -10.462
-10.461 -10.461 -10.461 -10.460 -10.460 -10.460 -10.457 -10.457
-10.455 -10.455 -10.447 -10.447 -10.433 -10.433 -10.431 -10.431
 -6.945  -6.942  -1.017  -1.017  -0.962  -0.960  -0.934  -0.934
 -0.909  -0.901  -0.856  -0.855  -0.848  -0.848  -0.822  -0.815
 -0.813  -0.805  -0.736  -0.730  -0.728  -0.721  -0.690  -0.680
 -0.680  -0.665  -0.652  -0.648  -0.597  -0.596  -0.594  -0.590
 -0.584  -0.576  -0.575  -0.544  -0.536  -0.529  -0.526  -0.510
 -0.509  -0.503  -0.500  -0.494  -0.493  -0.487  -0.485  -0.484
 -0.479  -0.474  -0.469  -0.463  -0.447  -0.442  -0.433  -0.431
 -0.424  -0.423  -0.399  -0.397  -0.396  -0.396  -0.395  -0.391
 -0.378  -0.376  -0.371  -0.352  -0.351  -0.343  -0.321  -0.314
 -0.296  -0.295  -0.281  -0.264  -0.256  -0.256

          Ground-State Mulliken Net Atomic Charges

     Atom                 Charge (a.u.)
  ----------------------------------------
      1 C                    -0.104167
      2 C                    -0.103367
      3 B                     0.224584
      4 C                    -0.102080
      5 C                    -0.104892
      6 B                     0.227897
      7 C                    -0.379486
      8 C                     0.107076
      9 C                     0.085499
     10 C                    -0.371156
     11 C                    -0.380508
     12 C                     0.107758
     13 C                     0.084042
     14 C                    -0.369957
     15 H                     0.207821
     16 C                     0.199120
     17 C                     0.200375
     18 C                    -0.373860
     19 C                    -0.202821
     20 C                    -0.335942
     21 C                     0.252759
     22 C                    -0.332493
     23 C                    -0.205025
     24 H                     0.226970
     25 H                     0.221038
     26 C                    -0.061371
     27 H                     0.207399
     28 C                    -0.379787
     29 H                     0.226809
     30 H                     0.216585
     31 H                     0.207719
     32 C                     0.199917
     33 C                    -0.332997
     34 C                    -0.204841
     35 C                    -0.373512
     36 H                     0.227023
     37 H                     0.216240
     38 H                     0.207517
     39 H                     0.215933
     40 C                    -0.060261
     41 C                     0.200364
     42 C                    -0.382304
     43 C                    -0.202235
     44 C                    -0.336141
     45 C                     0.253212
     46 H                     0.226718
     47 H                     0.221083
     48 H                     0.216465
     49 H                     0.220881
     50 H                     0.220833
     51 H                     0.033775
     52 H                     0.035791
  ----------------------------------------
  Sum of atomic charges =    -0.000000

                    Cartesian Multipole Moments
 -----------------------------------------------------------------
    Charge (ESU x 10^10)
                -0.0000
    Dipole Moment (Debye)
         X      -0.3093      Y      -0.1506      Z      -0.8919
       Tot       0.9560
    Quadrupole Moments (Debye-Ang)
        XX    -143.9298     XY     -10.6535     YY    -162.0944
        XZ     -12.3875     YZ      -2.4674     ZZ    -203.3328

 Total job time:  6222.37s(wall), 22961.87s(cpu)
        *  Thank you very much for using Q-Chem.  Have a nice day.  *
