 Q-Chem 5.1, Q-Chem, Inc., Pleasanton, CA (2018)
 Q-Chem 5.1.1 for Intel X86 EM64T Linux

User input:
--------------------------------------------------------------
$rem
threads 4
jobtype opt
method PBEh-3c
basis def2-mSVP
mem_static      1024
mem_total       4000
sym_ignore      true
unrestricted true
scf_algorithm	diis
scf_max_cycles	250
solvent_method  pcm
geom_opt_tol_energy 25
geom_opt_tol_gradient 75
$end

$pcm
theory  iefpcm
$end

$solvent
dielectric      1.0001
$end

$molecule
read ANDBA_an.mol
$end
--------------------------------------------------------------

   19   -1277.2326632015      8.25e-09  Convergence criterion met
 Total energy in the final basis set =    -1277.2326632015
   16   -1277.2555730027      6.85e-09  Convergence criterion met
 Total energy in the final basis set =    -1277.2555730027
   15   -1277.2581594222      8.23e-09  Convergence criterion met
 Total energy in the final basis set =    -1277.2581594222
   12   -1277.2580378747      8.43e-09  Convergence criterion met
 Total energy in the final basis set =    -1277.2580378747
   12   -1277.2581792228      8.67e-09  Convergence criterion met
 Total energy in the final basis set =    -1277.2581792228
    8   -1277.2581879093      7.95e-09  Convergence criterion met
 Total energy in the final basis set =    -1277.2581879093
    7   -1277.2581825262      7.55e-09  Convergence criterion met
 Total energy in the final basis set =    -1277.2581825262

             Standard Nuclear Orientation (Angstroms)
    I     Atom           X                Y                Z
 ----------------------------------------------------------------
    1      C      -6.2159475383     4.0061766557     1.7137165577
    2      C      -6.7475215094     2.7061885664     1.9833975913
    3      B      -5.8686455690     1.4641667762     1.8348863749
    4      C      -4.4249596095     1.6047751669     1.3531437540
    5      C      -3.8703789803     2.8998005174     1.1076960118
    6      B      -4.7432970382     4.1495159490     1.3011788149
    7      C      -2.5449806316     2.9968149312     0.6393684343
    8      C      -1.7981170965     1.8655800414     0.3920734261
    9      C      -2.3685139521     0.5772994156     0.6188431461
   10      C      -3.6491800530     0.4614729801     1.1019287592
   11      C      -7.0718707921     5.1238017179     1.7881548578
   12      C      -8.4044835915     4.9733802008     2.1045031989
   13      C      -8.9203708227     3.6733072861     2.3872710135
   14      C      -8.1016231841     2.5725414806     2.3303337919
   15      H      -6.6671855095     6.1074271882     1.5710208551
   16      C      -0.4532392127     1.6644704545    -0.1414163154
   17      C     -10.3452072405     3.7923108080     2.6581701110
   18      C     -11.3572487859     2.9126973778     2.9646552988
   19      C       1.7486526073     1.8876014586    -1.0650244303
   20      C       1.9206394482     0.5243546589    -1.1533489303
   21      C       0.8855577199    -0.3449066393    -0.7307624001
   22      C     -12.9692677552     4.7513879936     2.9928044868
   23      C     -12.6654764182     3.4156445106     3.1307907592
   24      H     -13.4603879181     2.7196901969     3.3709985320
   25      H       2.8430968702     0.1181884250    -1.5512189624
   26      C      -0.2607779706     0.2678339495    -0.2318717825
   27      H      -4.0862518070    -0.5171619796     1.2765388242
   28      C       0.5673279361     2.4806266141    -0.5660925935
   29      H       2.5494991805     2.5368055008    -1.3975064566
   30      H       0.4819860201     3.5594659173    -0.5308094695
   31      H      -2.1279559036     3.9815429231     0.4531748590
   32      C      -1.4004302040    -0.4317079504     0.2171123028
   33      C       0.8708127034    -1.7617006112    -0.7720116509
   34      C      -0.2389345959    -2.4522417696    -0.3378216749
   35      C      -1.3902603936    -1.8058715768     0.1613265175
   36      H      -0.2333017754    -3.5347867062    -0.3842170467
   37      H      -2.2416996263    -2.3943408680     0.4811384909
   38      H      -8.4977629177     1.5816388151     2.5315440267
   39      H     -11.1737511901     1.8508346955     3.0735734731
   40      C     -10.6634190092     5.1586209784     2.5240068600
   41      C      -9.5195209474     5.9166353240     2.1893851236
   42      C      -9.6852297558     7.2682144711     2.0007809239
   43      C     -10.9753952712     7.8256585328     2.1505483666
   44      C     -12.0814528323     7.0735429042     2.4760262947
   45      C     -11.9474480119     5.6785838056     2.6740041827
   46      H     -11.0955579936     8.8912904616     1.9975456912
   47      H     -13.0518648658     7.5456189263     2.5749451057
   48      H      -8.8545461218     7.9098473243     1.7350138568
   49      H     -13.9900345246     5.0916980812     3.1222973290
   50      H       1.7295403434    -2.3024934900    -1.1520145675
   51      H      -6.3267035695     0.3714399522     2.0632585352
   52      H      -4.2796203336     5.2440376564     1.0959297417
 ----------------------------------------------------------------

    7   -1277.2581793027      4.38e-09  Convergence criterion met
 Total energy in the final basis set =    -1277.2581793027
 Final energy is   -1277.25817930274
 **  OPTIMIZATION CONVERGED  **

                    Orbital Energies (a.u.)
 --------------------------------------------------------------

 Alpha MOs
 -- Occupied --
-10.369 -10.369 -10.368 -10.368 -10.368 -10.367 -10.365 -10.365
-10.365 -10.365 -10.363 -10.363 -10.363 -10.363 -10.362 -10.361
-10.360 -10.360 -10.348 -10.348 -10.343 -10.342 -10.340 -10.340
-10.338 -10.338 -10.336 -10.335 -10.305 -10.305 -10.303 -10.303
 -6.796  -6.793  -0.911  -0.911  -0.850  -0.849  -0.835  -0.835
 -0.794  -0.787  -0.750  -0.750  -0.745  -0.745  -0.708  -0.706
 -0.705  -0.691  -0.629  -0.627  -0.627  -0.615  -0.588  -0.576
 -0.568  -0.554  -0.539  -0.534  -0.497  -0.497  -0.487  -0.484
 -0.480  -0.472  -0.469  -0.439  -0.431  -0.426  -0.419  -0.401
 -0.397  -0.395  -0.388  -0.387  -0.383  -0.382  -0.382  -0.381
 -0.379  -0.372  -0.360  -0.359  -0.344  -0.333  -0.325  -0.322
 -0.316  -0.311  -0.300  -0.300  -0.300  -0.295  -0.287  -0.283
 -0.263  -0.253  -0.248  -0.241  -0.222  -0.216  -0.214  -0.208
 -0.203  -0.202  -0.176  -0.164  -0.152  -0.142  -0.049

 Beta MOs
 -- Occupied --
-10.370 -10.370 -10.368 -10.368 -10.368 -10.368 -10.364 -10.364
-10.364 -10.364 -10.363 -10.362 -10.362 -10.361 -10.361 -10.361
-10.360 -10.360 -10.348 -10.347 -10.342 -10.341 -10.339 -10.339
-10.338 -10.338 -10.336 -10.336 -10.304 -10.304 -10.302 -10.302
 -6.794  -6.791  -0.910  -0.910  -0.849  -0.848  -0.834  -0.834
 -0.793  -0.787  -0.749  -0.749  -0.744  -0.744  -0.706  -0.705
 -0.704  -0.689  -0.627  -0.626  -0.626  -0.615  -0.587  -0.576
 -0.564  -0.552  -0.539  -0.534  -0.496  -0.495  -0.485  -0.483
 -0.480  -0.471  -0.466  -0.438  -0.431  -0.426  -0.416  -0.400
 -0.395  -0.393  -0.387  -0.387  -0.383  -0.381  -0.380  -0.380
 -0.378  -0.371  -0.359  -0.358  -0.343  -0.332  -0.323  -0.317
 -0.312  -0.310  -0.299  -0.297  -0.297  -0.295  -0.286  -0.282
 -0.256  -0.251  -0.246  -0.240  -0.221  -0.213  -0.208  -0.204
 -0.199  -0.199  -0.163  -0.155  -0.149  -0.133

          Ground-State Mulliken Net Atomic Charges

     Atom                 Charge (a.u.)    Spin (a.u.)
  --------------------------------------------------------
      1 C                    -0.079192       0.046418
      2 C                    -0.078474       0.045783
      3 B                     0.049157       0.269322
      4 C                    -0.077214       0.045541
      5 C                    -0.079900       0.046627
      6 B                     0.051340       0.270331
      7 C                    -0.392607      -0.056322
      8 C                     0.094914       0.076155
      9 C                     0.073979       0.077224
     10 C                    -0.384241      -0.056798
     11 C                    -0.393769      -0.055577
     12 C                     0.095614       0.075332
     13 C                     0.072496       0.077518
     14 C                    -0.382754      -0.056926
     15 H                     0.180195       0.002391
     16 C                     0.194455      -0.050154
     17 C                     0.195527      -0.050942
     18 C                    -0.391031       0.092471
     19 C                    -0.196864      -0.057107
     20 C                    -0.356346       0.090433
     21 C                     0.256430      -0.046778
     22 C                    -0.353115       0.091664
     23 C                    -0.199124      -0.057421
     24 H                     0.195918       0.002847
     25 H                     0.189851      -0.005575
     26 C                    -0.084242       0.026425
     27 H                     0.180242       0.002428
     28 C                    -0.397043       0.091282
     29 H                     0.195640       0.002833
     30 H                     0.197533      -0.005513
     31 H                     0.180125       0.002428
     32 C                     0.195063      -0.051132
     33 C                    -0.353661       0.092304
     34 C                    -0.198936      -0.057759
     35 C                    -0.390770       0.092896
     36 H                     0.195892       0.002863
     37 H                     0.197726      -0.005606
     38 H                     0.180316       0.002426
     39 H                     0.197510      -0.005585
     40 C                    -0.083171       0.026237
     41 C                     0.195661      -0.049752
     42 C                    -0.399340       0.090576
     43 C                    -0.196324      -0.056680
     44 C                    -0.356320       0.089407
     45 C                     0.256773      -0.046451
     46 H                     0.195622       0.002813
     47 H                     0.190003      -0.005509
     48 H                     0.197410      -0.005474
     49 H                     0.189654      -0.005659
     50 H                     0.189512      -0.005697
     51 H                     0.019057      -0.020326
     52 H                     0.020822      -0.020232
  --------------------------------------------------------
  Sum of atomic charges =    -1.000000

                    Cartesian Multipole Moments
 -----------------------------------------------------------------
    Charge (ESU x 10^10)
                -4.8032
    Dipole Moment (Debye)
         X      25.7410      Y     -13.3035      Z      -6.7787
       Tot      29.7579
    Quadrupole Moments (Debye-Ang)
        XX    -394.7548     XY     101.8487     YY    -240.8818
        XZ      47.5369     YZ     -28.3837     ZZ    -224.1732

 Total job time:  5954.45s(wall), 21808.34s(cpu)
        *  Thank you very much for using Q-Chem.  Have a nice day.  *
