 Q-Chem 5.1, Q-Chem, Inc., Pleasanton, CA (2018)
 Q-Chem 5.1.1 for Intel X86 EM64T Linux

User input:
--------------------------------------------------------------
$rem
threads 4
jobtype	opt
method PBEh-3c
basis def2-mSVP
mem_static	1024
mem_total	3000
sym_ignore	true
scf_convergence	9
solvent_method	pcm
$end

$molecule
read iDBP.mol
$end

$solvent
dielectric	1.0001
$end

$pcm
theory iefpcm
$end

--------------------------------------------------------------

   17    -818.4624737877      5.66e-10  Convergence criterion met
 Total energy in the final basis set =     -818.4624737877
   15    -818.4720972115      4.58e-10  Convergence criterion met
 Total energy in the final basis set =     -818.4720972115
   14    -818.4727853975      3.88e-10  Convergence criterion met
 Total energy in the final basis set =     -818.4727853975
   13    -818.4726517854      9.46e-10  Convergence criterion met
 Total energy in the final basis set =     -818.4726517854
   13    -818.4728788584      4.69e-10  Convergence criterion met
 Total energy in the final basis set =     -818.4728788584
   11    -818.4728768358      5.24e-10  Convergence criterion met
 Total energy in the final basis set =     -818.4728768358
   11    -818.4728693209      5.35e-10  Convergence criterion met
 Total energy in the final basis set =     -818.4728693209

             Standard Nuclear Orientation (Angstroms)
    I     Atom           X                Y                Z
 ----------------------------------------------------------------
    1      C      -7.5095146881     4.6121683207     3.0397983183
    2      C      -8.1968509828     3.3877764707     3.3855261694
    3      B      -7.3878551780     2.1523890919     3.8251257860
    4      C      -5.8431857442     2.2127775733     3.8821977905
    5      C      -5.1667769896     3.4103960315     3.5447600824
    6      B      -5.9701070569     4.6633897965     3.1162363748
    7      C      -3.7738206981     3.4367880052     3.5997469337
    8      C      -3.0491624969     2.3130207426     3.9754852727
    9      C      -3.7125872605     1.1404471846     4.3051806757
   10      C      -5.0995929146     1.0954293795     4.2586221574
   11      C      -8.2350912068     5.6991120885     2.6386665319
   12      C      -9.6573101402     5.6656714559     2.5408019976
   13      C     -10.3342496061     4.4536063863     2.8820862789
   14      C      -9.5594045886     3.3358743752     3.3049780679
   15      H      -7.7252055343     6.6207478510     2.3782895348
   16      C     -11.7164261615     4.3939330219     2.7862659258
   17      H      -5.6144219149     0.1774734365     4.5169343410
   18      H      -3.2490179345     4.3493132320     3.3431161869
   19      H     -10.0807019964     2.4196817506     3.5629167042
   20      C     -10.3995175961     6.7601594088     2.1201185806
   21      C     -11.7901475812     6.7025963853     2.0189426946
   22      C     -12.4642758179     5.4905593420     2.3596803355
   23      C     -12.5629362599     7.8120876614     1.5819655146
   24      C     -13.8798356166     5.4379738069     2.2493386174
   25      H      -1.9678001984     2.3501017282     4.0109957947
   26      H      -3.1493588979     0.2631982139     4.5972974313
   27      H     -12.2276870303     3.4728128758     3.0442167266
   28      H      -9.8881999377     7.6801327090     1.8596582647
   29      C     -13.9175961617     7.7243894617     1.4872711823
   30      C     -14.5856784946     6.5207982521     1.8252966456
   31      H     -14.3897488631     4.5177955494     2.5074697658
   32      H     -15.6633008283     6.4691491349     1.7434661017
   33      H     -12.0543690184     8.7324412645     1.3226385824
   34      H     -14.4943932210     8.5761730182     1.1521019586
   35      H      -5.3929418891     5.6745350365     2.8360843648
   36      H      -7.9587194947     1.1407599570     4.1177823088
 ----------------------------------------------------------------

   10    -818.4728697659      4.53e-10  Convergence criterion met
 Total energy in the final basis set =     -818.4728697659
 Final energy is   -818.472869765863
 **  OPTIMIZATION CONVERGED  **

                    Orbital Energies (a.u.)
 --------------------------------------------------------------

 Alpha MOs
 -- Occupied --
-10.471 -10.470 -10.468 -10.467 -10.463 -10.463 -10.462 -10.461
-10.460 -10.460 -10.459 -10.459 -10.456 -10.455 -10.452 -10.452
-10.432 -10.432 -10.431 -10.430  -6.943  -6.943  -0.999  -0.961
 -0.955  -0.906  -0.892  -0.854  -0.846  -0.839  -0.829  -0.801
 -0.736  -0.707  -0.691  -0.687  -0.683  -0.667  -0.620  -0.612
 -0.589  -0.581  -0.550  -0.537  -0.529  -0.526  -0.516  -0.513
 -0.497  -0.492  -0.488  -0.481  -0.472  -0.465  -0.446  -0.436
 -0.433  -0.424  -0.423  -0.414  -0.399  -0.378  -0.376  -0.365
 -0.358  -0.351  -0.341  -0.312  -0.310  -0.298  -0.282  -0.242

          Ground-State Mulliken Net Atomic Charges

     Atom                 Charge (a.u.)
  ----------------------------------------
      1 C                    -0.093554
      2 C                    -0.095035
      3 B                     0.217742
      4 C                    -0.105109
      5 C                    -0.106777
      6 B                     0.218740
      7 C                    -0.273715
      8 C                    -0.208928
      9 C                    -0.209529
     10 C                    -0.273473
     11 C                    -0.349484
     12 C                     0.177336
     13 C                     0.173504
     14 C                    -0.347558
     15 H                     0.218416
     16 C                    -0.383738
     17 H                     0.223091
     18 H                     0.223086
     19 H                     0.218323
     20 C                    -0.385062
     21 C                     0.163204
     22 C                     0.161351
     23 C                    -0.278948
     24 C                    -0.277939
     25 H                     0.224773
     26 H                     0.224819
     27 H                     0.213738
     28 H                     0.213734
     29 C                    -0.223807
     30 C                    -0.224468
     31 H                     0.218457
     32 H                     0.226268
     33 H                     0.218445
     34 H                     0.226238
     35 H                     0.038194
     36 H                     0.037666
  ----------------------------------------
  Sum of atomic charges =    -0.000000

                    Cartesian Multipole Moments
 -----------------------------------------------------------------
    Charge (ESU x 10^10)
                -0.0000
    Dipole Moment (Debye)
         X      -1.2649      Y       0.5895      Z      -0.3737
       Tot       1.4447
    Quadrupole Moments (Debye-Ang)
        XX     -78.1270     XY     -16.9813     YY    -107.0671
        XZ       3.9360     YZ      -7.8433     ZZ    -135.2052

 Total job time:  2112.54s(wall), 7610.42s(cpu)
        *  Thank you very much for using Q-Chem.  Have a nice day.  *
