 Q-Chem 5.1, Q-Chem, Inc., Pleasanton, CA (2018)
 Q-Chem 5.1.1 for Intel X86 EM64T Linux

User input:
--------------------------------------------------------------
$rem
threads 4
jobtype	opt
method PBEh-3c
basis def2-mSVP
mem_static	1024
mem_total	3000
sym_ignore	true
scf_convergence	9
solvent_method	pcm
$end

$molecule
read iDBP.mol
$end

$solvent
dielectric	2.38
$end

$pcm
theory iefpcm
$end

--------------------------------------------------------------

   17    -818.4682298946      4.43e-10  Convergence criterion met
 Total energy in the final basis set =     -818.4682298946
   15    -818.4776532221      7.24e-10  Convergence criterion met
 Total energy in the final basis set =     -818.4776532221
   15    -818.4783369787      4.52e-10  Convergence criterion met
 Total energy in the final basis set =     -818.4783369787
   15    -818.4782094420      4.06e-10  Convergence criterion met
 Total energy in the final basis set =     -818.4782094420
   14    -818.4784374183      6.35e-10  Convergence criterion met
 Total energy in the final basis set =     -818.4784374183
   14    -818.4784355560      7.60e-10  Convergence criterion met
 Total energy in the final basis set =     -818.4784355560
   14    -818.4784276433      7.58e-10  Convergence criterion met
 Total energy in the final basis set =     -818.4784276433

             Standard Nuclear Orientation (Angstroms)
    I     Atom           X                Y                Z
 ----------------------------------------------------------------
    1      C      -7.5094099554     4.6123639152     3.0392783678
    2      C      -8.1970812594     3.3873624498     3.3850676261
    3      B      -7.3878757490     2.1527289813     3.8245781826
    4      C      -5.8430772413     2.2123783531     3.8821873978
    5      C      -5.1663504624     3.4105560340     3.5447176310
    6      B      -5.9705194928     4.6631089748     3.1159895193
    7      C      -3.7728913398     3.4371355312     3.6000583141
    8      C      -3.0479483055     2.3128480077     3.9763097348
    9      C      -3.7116309776     1.1397986765     4.3059731705
   10      C      -5.0993211799     1.0946190897     4.2590073278
   11      C      -8.2350226552     5.7000781369     2.6378905490
   12      C      -9.6576545305     5.6659700361     2.5402510737
   13      C     -10.3348186078     4.4535379648     2.8816323289
   14      C      -9.5603282060     3.3350561119     3.3045578970
   15      H      -7.7269851974     6.6226699477     2.3769780821
   16      C     -11.7173099245     4.3926284153     2.7864422506
   17      H      -5.6128586656     0.1758193692     4.5175103837
   18      H      -3.2466036593     4.3490605483     3.3437172869
   19      H     -10.0834824567     2.4197070379     3.5620179971
   20      C     -10.3989037767     6.7614658996     2.1194501681
   21      C     -11.7902149068     6.7028358534     2.0187968743
   22      C     -12.4645846474     5.4904647463     2.3597453212
   23      C     -12.5624576262     7.8132211626     1.5817393211
   24      C     -13.8805934835     5.4370872972     2.2499635901
   25      H      -1.9665547243     2.3501306160     4.0121395729
   26      H      -3.1484821668     0.2625219985     4.5983629230
   27      H     -12.2287247127     3.4716086593     3.0445795964
   28      H      -9.8878578563     7.6815642928     1.8587292973
   29      C     -13.9178179706     7.7249246481     1.4874587265
   30      C     -14.5862094356     6.5208824539     1.8257490938
   31      H     -14.3900610769     4.5166594362     2.5084562667
   32      H     -15.6639877955     6.4697596666     1.7439536207
   33      H     -12.0534210418     8.7333924886     1.3223230403
   34      H     -14.4950847690     8.5766014324     1.1523925893
   35      H      -5.3930964379     5.6744076905     2.8360610510
   36      H      -7.9585677060     1.1407040769     4.1169938263
 ----------------------------------------------------------------

   14    -818.4784287639      9.76e-10  Convergence criterion met
 Total energy in the final basis set =     -818.4784287639
 Final energy is   -818.478428763901
 **  OPTIMIZATION CONVERGED  **

                    Orbital Energies (a.u.)
 --------------------------------------------------------------

 Alpha MOs
 -- Occupied --
-10.471 -10.470 -10.468 -10.468 -10.463 -10.462 -10.462 -10.462
-10.458 -10.458 -10.457 -10.457 -10.456 -10.455 -10.453 -10.453
-10.434 -10.434 -10.432 -10.432  -6.945  -6.945  -0.999  -0.961
 -0.956  -0.905  -0.891  -0.853  -0.847  -0.840  -0.830  -0.800
 -0.736  -0.707  -0.690  -0.687  -0.683  -0.667  -0.619  -0.612
 -0.588  -0.581  -0.549  -0.536  -0.529  -0.523  -0.515  -0.514
 -0.497  -0.491  -0.486  -0.480  -0.473  -0.464  -0.445  -0.436
 -0.434  -0.424  -0.424  -0.413  -0.397  -0.380  -0.376  -0.366
 -0.358  -0.352  -0.342  -0.313  -0.311  -0.300  -0.283  -0.242

          Ground-State Mulliken Net Atomic Charges

     Atom                 Charge (a.u.)
  ----------------------------------------
      1 C                    -0.096934
      2 C                    -0.098286
      3 B                     0.209993
      4 C                    -0.108000
      5 C                    -0.109643
      6 B                     0.211102
      7 C                    -0.284628
      8 C                    -0.221200
      9 C                    -0.221802
     10 C                    -0.284377
     11 C                    -0.355471
     12 C                     0.165761
     13 C                     0.162103
     14 C                    -0.353647
     15 H                     0.233050
     16 C                    -0.389268
     17 H                     0.235408
     18 H                     0.235369
     19 H                     0.232898
     20 C                    -0.390558
     21 C                     0.151958
     22 C                     0.150182
     23 C                    -0.289662
     24 C                    -0.288670
     25 H                     0.241412
     26 H                     0.241473
     27 H                     0.233187
     28 H                     0.233139
     29 C                    -0.236371
     30 C                    -0.236966
     31 H                     0.235858
     32 H                     0.242286
     33 H                     0.235820
     34 H                     0.242245
     35 H                     0.036350
     36 H                     0.035890
  ----------------------------------------
  Sum of atomic charges =    -0.000000

                    Cartesian Multipole Moments
 -----------------------------------------------------------------
    Charge (ESU x 10^10)
                -0.0000
    Dipole Moment (Debye)
         X      -1.5771      Y       0.7375      Z      -0.4574
       Tot       1.8001
    Quadrupole Moments (Debye-Ang)
        XX     -68.5916     XY     -20.9198     YY    -103.7905
        XZ       4.4334     YZ      -8.5655     ZZ    -135.6388

 Total job time:  2337.59s(wall), 8454.68s(cpu)
        *  Thank you very much for using Q-Chem.  Have a nice day.  *
