 Q-Chem 5.1, Q-Chem, Inc., Pleasanton, CA (2018)
 Q-Chem 5.1.1 for Intel X86 EM64T Linux

User input:
--------------------------------------------------------------
$rem
threads 4
jobtype opt
method PBEh-3c
basis def2-mSVP
mem_static      1024
mem_total       4000
sym_ignore      true
unrestricted true
scf_algorithm	diis
scf_max_cycles	250
solvent_method  pcm
geom_opt_tol_energy 25
geom_opt_tol_gradient 75
$end

$pcm
theory  iefpcm
$end

$solvent
dielectric      1.0001
$end

$molecule
read iDBP_an.mol
$end
--------------------------------------------------------------

   28    -818.5087408857      8.05e-09  Convergence criterion met
 Total energy in the final basis set =     -818.5087408857
   23    -818.5219726742      5.39e-09  Convergence criterion met
 Total energy in the final basis set =     -818.5219726742
   20    -818.5230882611      7.87e-09  Convergence criterion met
 Total energy in the final basis set =     -818.5230882611
   19    -818.5231134218      6.20e-09  Convergence criterion met
 Total energy in the final basis set =     -818.5231134218
   18    -818.5231103568      9.84e-09  Convergence criterion met
 Total energy in the final basis set =     -818.5231103568
   17    -818.5231109559      8.22e-09  Convergence criterion met
 Total energy in the final basis set =     -818.5231109559
   18    -818.5231044460      9.03e-09  Convergence criterion met
 Total energy in the final basis set =     -818.5231044460
   18    -818.5230930133      8.44e-09  Convergence criterion met
 Total energy in the final basis set =     -818.5230930133
   14    -818.5230978072      9.10e-09  Convergence criterion met
 Total energy in the final basis set =     -818.5230978072

             Standard Nuclear Orientation (Angstroms)
    I     Atom           X                Y                Z
 ----------------------------------------------------------------
    1      C      -7.4828219748     4.6181082220     3.0274385644
    2      C      -8.1774705134     3.3873991947     3.3742099278
    3      B      -7.3792956340     2.1438941208     3.8165713810
    4      C      -5.8596902515     2.2094433743     3.8789324653
    5      C      -5.1757252242     3.4213220590     3.5377647315
    6      B      -5.9506971100     4.6654687398     3.1060353901
    7      C      -3.7648358563     3.4232616680     3.6093090427
    8      C      -3.0485984680     2.3129346429     3.9892474061
    9      C      -3.7224264598     1.1243389463     4.3233877191
   10      C      -5.0957669962     1.0883366429     4.2655969040
   11      C      -8.2370307362     5.7080793619     2.6257087552
   12      C      -9.6409442277     5.6744127211     2.5323432451
   13      C     -10.3224259435     4.4546707548     2.8756224097
   14      C      -9.5503766919     3.3470273118     3.2913798497
   15      H      -7.7283026223     6.6313963668     2.3638333255
   16      C     -11.7123318124     4.3993214964     2.7816537914
   17      H      -5.6185874637     0.1720970696     4.5222146642
   18      H      -3.2368760887     4.3359171629     3.3520923667
   19      H     -10.0707460158     2.4285842196     3.5491507351
   20      C     -10.4080147697     6.7702255693     2.1131468497
   21      C     -11.7894008731     6.7084938480     2.0181920172
   22      C     -12.4649552104     5.4878957783     2.3617151088
   23      C     -12.5803320651     7.8144188865     1.5853324104
   24      C     -13.8832538471     5.4376745504     2.2549576895
   25      H      -1.9655202318     2.3485528741     4.0319671674
   26      H      -3.1601035443     0.2467802191     4.6221125940
   27      H     -12.2187166886     3.4744123255     3.0409243328
   28      H      -9.9008573640     7.6933311431     1.8511448736
   29      C     -13.9333376222     7.7249286029     1.4958487145
   30      C     -14.6000395116     6.5147284533     1.8363228085
   31      H     -14.3874692180     4.5134392514     2.5148583472
   32      H     -15.6785443094     6.4579627587     1.7596857784
   33      H     -12.0760372358     8.7379284576     1.3244038142
   34      H     -14.5134411685     8.5770218586     1.1638188606
   35      H      -5.3640164117     5.6821109723     2.8206774800
   36      H      -7.9687998382     1.1297403755     4.1034584784
 ----------------------------------------------------------------

   15    -818.5230972301      8.36e-09  Convergence criterion met
 Total energy in the final basis set =     -818.5230972301
 Final energy is   -818.523097230091
 **  OPTIMIZATION CONVERGED  **

                    Orbital Energies (a.u.)
 --------------------------------------------------------------

 Alpha MOs
 -- Occupied --
-10.358 -10.358 -10.358 -10.357 -10.356 -10.355 -10.346 -10.343
-10.341 -10.339 -10.323 -10.318 -10.317 -10.316 -10.313 -10.311
-10.294 -10.289 -10.283 -10.282  -6.777  -6.766  -0.881  -0.839
 -0.811  -0.782  -0.776  -0.734  -0.716  -0.699  -0.689  -0.677
 -0.616  -0.586  -0.577  -0.554  -0.545  -0.531  -0.501  -0.488
 -0.465  -0.455  -0.428  -0.412  -0.410  -0.401  -0.386  -0.382
 -0.374  -0.366  -0.357  -0.357  -0.350  -0.341  -0.323  -0.310
 -0.304  -0.293  -0.289  -0.287  -0.277  -0.246  -0.244  -0.234
 -0.231  -0.202  -0.196  -0.196  -0.188  -0.170  -0.148  -0.126
 -0.024

 Beta MOs
 -- Occupied --
-10.359 -10.358 -10.357 -10.356 -10.356 -10.354 -10.347 -10.342
-10.340 -10.339 -10.324 -10.317 -10.316 -10.315 -10.313 -10.311
-10.293 -10.290 -10.283 -10.281  -6.774  -6.763  -0.881  -0.838
 -0.809  -0.781  -0.775  -0.732  -0.714  -0.697  -0.686  -0.676
 -0.615  -0.584  -0.576  -0.553  -0.540  -0.530  -0.498  -0.487
 -0.464  -0.453  -0.425  -0.410  -0.408  -0.400  -0.386  -0.380
 -0.373  -0.362  -0.356  -0.355  -0.349  -0.340  -0.322  -0.306
 -0.303  -0.291  -0.286  -0.282  -0.276  -0.243  -0.240  -0.232
 -0.228  -0.201  -0.193  -0.190  -0.173  -0.160  -0.142  -0.119

          Ground-State Mulliken Net Atomic Charges

     Atom                 Charge (a.u.)    Spin (a.u.)
  --------------------------------------------------------
      1 C                    -0.048297      -0.006588
      2 C                    -0.067963       0.043343
      3 B                     0.024345       0.300677
      4 C                    -0.084939       0.068391
      5 C                    -0.070744       0.029468
      6 B                    -0.022188       0.385951
      7 C                    -0.282312       0.000379
      8 C                    -0.227509       0.042320
      9 C                    -0.236146       0.086510
     10 C                    -0.275944      -0.037946
     11 C                    -0.391574       0.075663
     12 C                     0.181758       0.012078
     13 C                     0.163003       0.076049
     14 C                    -0.373480      -0.060617
     15 H                     0.180987      -0.005716
     16 C                    -0.389496      -0.083875
     17 H                     0.179720       0.001296
     18 H                     0.180603      -0.000903
     19 H                     0.184023       0.002738
     20 C                    -0.400776       0.063289
     21 C                     0.156076      -0.019537
     22 C                     0.145133       0.072302
     23 C                    -0.280430       0.039930
     24 C                    -0.275816      -0.055990
     25 H                     0.168680      -0.003369
     26 H                     0.168156      -0.005986
     27 H                     0.184994       0.004726
     28 H                     0.183642      -0.004326
     29 C                    -0.234577      -0.035113
     30 C                    -0.241969       0.067602
     31 H                     0.191518       0.003059
     32 H                     0.189405      -0.004146
     33 H                     0.191877      -0.002415
     34 H                     0.189757       0.001738
     35 H                     0.020570      -0.028274
     36 H                     0.019912      -0.022709
  --------------------------------------------------------
  Sum of atomic charges =    -1.000000

                    Cartesian Multipole Moments
 -----------------------------------------------------------------
    Charge (ESU x 10^10)
                -4.8032
    Dipole Moment (Debye)
         X      36.0232      Y     -18.7617      Z     -15.5258
       Tot      43.4825
    Quadrupole Moments (Debye-Ang)
        XX    -437.7947     XY     159.1649     YY    -214.3746
        XZ     108.7530     YZ     -59.4123     ZZ    -192.2330

 Total job time:  3545.58s(wall), 12988.81s(cpu)
        *  Thank you very much for using Q-Chem.  Have a nice day.  *
