 Q-Chem 5.1, Q-Chem, Inc., Pleasanton, CA (2018)
 Q-Chem 5.1.1 for Intel X86 EM64T Linux

User input:
--------------------------------------------------------------
$rem
threads 4
jobtype opt
method PBEh-3c
basis def2-mSVP
mem_static      1024
mem_total       4000
sym_ignore      true
unrestricted true
scf_algorithm	diis
scf_max_cycles	250
solvent_method  pcm
geom_opt_tol_energy 25
geom_opt_tol_gradient 75
$end

$pcm
theory  iefpcm
$end

$solvent
dielectric      2.38
$end

$molecule
read iDBP_an.mol
$end
--------------------------------------------------------------

   25    -818.5499425921      9.76e-09  Convergence criterion met
 Total energy in the final basis set =     -818.5499425921
   22    -818.5630542677      7.63e-09  Convergence criterion met
 Total energy in the final basis set =     -818.5630542677
   20    -818.5641931734      9.01e-09  Convergence criterion met
 Total energy in the final basis set =     -818.5641931734
   20    -818.5642192933      8.04e-09  Convergence criterion met
 Total energy in the final basis set =     -818.5642192933
   20    -818.5642163334      6.81e-09  Convergence criterion met
 Total energy in the final basis set =     -818.5642163334
   18    -818.5642186754      7.23e-09  Convergence criterion met
 Total energy in the final basis set =     -818.5642186754
   18    -818.5642176549      7.93e-09  Convergence criterion met
 Total energy in the final basis set =     -818.5642176549

             Standard Nuclear Orientation (Angstroms)
    I     Atom           X                Y                Z
 ----------------------------------------------------------------
    1      C      -7.4909065329     4.6087162109     3.0311256835
    2      C      -8.1835195886     3.3769083445     3.3784096780
    3      B      -7.3792615161     2.1399644970     3.8186802353
    4      C      -5.8598920242     2.2098172796     3.8790322163
    5      C      -5.1750569538     3.4231010389     3.5366134519
    6      B      -5.9550962220     4.6606771585     3.1074511606
    7      C      -3.7629560512     3.4295607760     3.6054602286
    8      C      -3.0428054974     2.3215895254     3.9850363659
    9      C      -3.7161743763     1.1314694798     4.3208552934
   10      C      -5.0891798958     1.0905311974     4.2658510751
   11      C      -8.2401845457     5.6989942392     2.6301862552
   12      C      -9.6476444856     5.6663444829     2.5364117931
   13      C     -10.3283702045     4.4480374925     2.8791846569
   14      C      -9.5595301525     3.3400620395     3.2950149417
   15      H      -7.7329621757     6.6232872424     2.3686586590
   16      C     -11.7214273074     4.3963019833     2.7830631318
   17      H      -5.6054239464     0.1710979495     4.5243553016
   18      H      -3.2361710067     4.3429248788     3.3474343932
   19      H     -10.0836030953     2.4236496056     3.5522888553
   20      C     -10.4061767783     6.7653549809     2.1164616644
   21      C     -11.7887325680     6.7069861613     2.0193790072
   22      C     -12.4664015850     5.4876844740     2.3619483975
   23      C     -12.5722498007     7.8176400823     1.5845957993
   24      C     -13.8875998084     5.4411791388     2.2522903543
   25      H      -1.9601872011     2.3586606197     4.0262620467
   26      H      -3.1515098280     0.2555020874     4.6189391538
   27      H     -12.2323319035     3.4737727474     3.0407137406
   28      H      -9.8956124383     7.6868016067     1.8558475414
   29      C     -13.9252455788     7.7315158303     1.4925638593
   30      C     -14.5958325449     6.5218359655     1.8319858282
   31      H     -14.3966426996     4.5194890291     2.5104920935
   32      H     -15.6742767938     6.4700521934     1.7524766746
   33      H     -12.0638685126     8.7391179666     1.3252492773
   34      H     -14.5033215125     8.5842757757     1.1597797487
   35      H      -5.3755660672     5.6812939467     2.8198890332
   36      H      -7.9620688014     1.1214619725     4.1070724033
 ----------------------------------------------------------------

   18    -818.5642147993      9.83e-09  Convergence criterion met
 Total energy in the final basis set =     -818.5642147993
 Final energy is   -818.564214799321
 **  OPTIMIZATION CONVERGED  **

                    Orbital Energies (a.u.)
 --------------------------------------------------------------

 Alpha MOs
 -- Occupied --
-10.416 -10.415 -10.413 -10.413 -10.412 -10.412 -10.406 -10.405
-10.404 -10.404 -10.387 -10.386 -10.382 -10.381 -10.379 -10.378
-10.360 -10.359 -10.351 -10.351  -6.841  -6.838  -0.942  -0.901
 -0.877  -0.844  -0.835  -0.795  -0.779  -0.766  -0.754  -0.740
 -0.676  -0.647  -0.635  -0.618  -0.611  -0.596  -0.561  -0.547
 -0.527  -0.517  -0.488  -0.473  -0.470  -0.463  -0.449  -0.441
 -0.439  -0.429  -0.422  -0.418  -0.414  -0.402  -0.384  -0.373
 -0.366  -0.357  -0.356  -0.351  -0.339  -0.307  -0.306  -0.301
 -0.300  -0.270  -0.264  -0.259  -0.253  -0.237  -0.214  -0.189
 -0.093

 Beta MOs
 -- Occupied --
-10.416 -10.415 -10.414 -10.413 -10.412 -10.412 -10.406 -10.405
-10.404 -10.403 -10.387 -10.385 -10.381 -10.380 -10.379 -10.378
-10.359 -10.359 -10.351 -10.350  -6.838  -6.835  -0.941  -0.899
 -0.875  -0.843  -0.835  -0.793  -0.777  -0.763  -0.752  -0.738
 -0.675  -0.645  -0.635  -0.617  -0.606  -0.595  -0.559  -0.546
 -0.526  -0.516  -0.484  -0.471  -0.468  -0.462  -0.447  -0.440
 -0.438  -0.426  -0.421  -0.416  -0.413  -0.401  -0.382  -0.368
 -0.365  -0.354  -0.350  -0.350  -0.338  -0.303  -0.303  -0.298
 -0.297  -0.269  -0.261  -0.252  -0.239  -0.227  -0.208  -0.182

          Ground-State Mulliken Net Atomic Charges

     Atom                 Charge (a.u.)    Spin (a.u.)
  --------------------------------------------------------
      1 C                    -0.059166      -0.004331
      2 C                    -0.065906       0.014748
      3 B                    -0.016470       0.337074
      4 C                    -0.085374       0.058294
      5 C                    -0.081072       0.045682
      6 B                    -0.033004       0.365574
      7 C                    -0.296587      -0.011209
      8 C                    -0.249133       0.059451
      9 C                    -0.252343       0.074027
     10 C                    -0.294163      -0.023891
     11 C                    -0.396561       0.041498
     12 C                     0.163258       0.024223
     13 C                     0.155315       0.047301
     14 C                    -0.389586      -0.003782
     15 H                     0.198923      -0.003395
     16 C                    -0.400870      -0.030703
     17 H                     0.196651       0.000452
     18 H                     0.196714      -0.000268
     19 H                     0.200315      -0.000641
     20 C                    -0.405383       0.015855
     21 C                     0.141439       0.007835
     22 C                     0.137016       0.036937
     23 C                    -0.291780       0.007454
     24 C                    -0.289644      -0.021498
     25 H                     0.196331      -0.004337
     26 H                     0.196245      -0.005186
     27 H                     0.210435       0.001483
     28 H                     0.209779      -0.001309
     29 C                    -0.249755      -0.002034
     30 C                    -0.252073       0.028176
     31 H                     0.217999       0.001106
     32 H                     0.219229      -0.001783
     33 H                     0.217957      -0.000510
     34 H                     0.219322      -0.000104
     35 H                     0.016033      -0.027021
     36 H                     0.015907      -0.025166
  --------------------------------------------------------
  Sum of atomic charges =    -1.000000

                    Cartesian Multipole Moments
 -----------------------------------------------------------------
    Charge (ESU x 10^10)
                -4.8032
    Dipole Moment (Debye)
         X      34.3915      Y     -17.6766      Z     -16.0182
       Tot      41.8548
    Quadrupole Moments (Debye-Ang)
        XX    -398.2109     XY     138.1972     YY    -201.2188
        XZ     110.4055     YZ     -59.9133     ZZ    -194.8383

 Total job time:  3000.96s(wall), 11000.64s(cpu)
        *  Thank you very much for using Q-Chem.  Have a nice day.  *
