 Q-Chem 5.1, Q-Chem, Inc., Pleasanton, CA (2018)
 Q-Chem 5.1.1 for Intel X86 EM64T Linux

User input:
--------------------------------------------------------------
$rem
threads 4
jobtype opt
method PBEh-3c
basis def2-mSVP
mem_static      1024
mem_total       4000
sym_ignore      true
unrestricted true
scf_algorithm	diis
scf_max_cycles	250
solvent_method  pcm
geom_opt_tol_energy 25
geom_opt_tol_gradient 75
$end

$pcm
theory  iefpcm
$end

$solvent
dielectric      1.0001
$end

$molecule
read PhenDBA_an.mol
$end
--------------------------------------------------------------

   20   -1588.6783180370      9.79e-09  Convergence criterion met
 Total energy in the final basis set =    -1588.6783180370
   15   -1588.7022757210      6.13e-09  Convergence criterion met
 Total energy in the final basis set =    -1588.7022757210
   14   -1588.7064551553      8.46e-09  Convergence criterion met
 Total energy in the final basis set =    -1588.7064551553
   10   -1588.7065404979      8.77e-09  Convergence criterion met
 Total energy in the final basis set =    -1588.7065404979
   10   -1588.7066948128      6.19e-09  Convergence criterion met
 Total energy in the final basis set =    -1588.7066948128
    9   -1588.7066970410      5.82e-09  Convergence criterion met
 Total energy in the final basis set =    -1588.7066970410
    8   -1588.7067064890      8.93e-09  Convergence criterion met
 Total energy in the final basis set =    -1588.7067064890
    9   -1588.7067264588      4.91e-09  Convergence criterion met
    7   -1588.7067262104      7.17e-09  Convergence criterion met
 Total energy in the final basis set =    -1588.7067262104
    7   -1588.7067230544      7.94e-09  Convergence criterion met
 Total energy in the final basis set =    -1588.7067230544
    7   -1588.7067224441      7.96e-09  Convergence criterion met
 Total energy in the final basis set =    -1588.7067224441
    6   -1588.7067231284      9.56e-09  Convergence criterion met
 Total energy in the final basis set =    -1588.7067231284
    7   -1588.7067257188      4.95e-09  Convergence criterion met
 Total energy in the final basis set =    -1588.7067257188
    6   -1588.7067278218      9.21e-09  Convergence criterion met
 Total energy in the final basis set =    -1588.7067278218

             Standard Nuclear Orientation (Angstroms)
    I     Atom           X                Y                Z
 ----------------------------------------------------------------
    1      C      -6.3737728471     3.9783499987     1.6582356156
    2      C      -6.8811698752     2.6670476938     1.9286370745
    3      B      -5.9780099136     1.4388632414     1.8050292686
    4      C      -4.5324857725     1.6254774401     1.3419333315
    5      C      -4.0143063163     2.9340985317     1.0799708779
    6      B      -4.9086159142     4.1688246958     1.2486236790
    7      C      -2.6962806069     3.0334583540     0.6339275295
    8      C      -1.8704434960     1.9348660984     0.4054796761
    9      C      -2.3965615856     0.6347327657     0.6469485605
   10      C      -3.7003353410     0.5311048937     1.1204613765
   11      C      -7.2639649358     5.0497882324     1.7411462283
   12      C      -8.6140966302     4.9129806569     2.0562981172
   13      C      -9.1122844540     3.6082897374     2.3326045702
   14      C      -8.2265513072     2.5381922714     2.2641762630
   15      H      -6.8596654537     6.0306223424     1.5243013205
   16      H      -6.4098615083     0.3365733794     2.0393457275
   17      C      -0.5076789696     2.0750072373    -0.0885975281
   18      C     -10.5201915998     3.4198018023     2.6530150687
   19      C     -11.0443184260     2.1486727919     2.9487558041
   20      C       1.3428642687     3.5094969775    -0.7950549026
   21      C       2.1030863645     2.3678381573    -1.0622698747
   22      C     -13.2349011058     3.0317105717     3.2346939880
   23      C     -12.3733633872     1.9315792621     3.2369471102
   24      C     -12.8929106400     0.5586511409     3.5508342696
   25      H      -4.1263422467    -0.4439800888     1.3204536406
   26      C       0.0640786705     3.3382811728    -0.3139504951
   27      H      -2.3272227021     4.0328697300     0.4414362079
   28      C      -1.5849211203    -0.5415280961     0.3681649987
   29      C      -0.0593197713    -2.8185886451    -0.2163173942
   30      C      -1.3505572429    -2.9765116911     0.2942502967
   31      C      -2.0791162972    -1.8418842275     0.5731833185
   32      C      -1.9223765892    -4.3463879320     0.5181398539
   33      H      -3.0799717835    -1.9722775238     0.9605367561
   34      H      -8.5797604479     1.5335557595     2.4595378213
   35      H     -10.3847453525     1.2921746083     2.9520768517
   36      C      -9.5276883337     6.0479244347     2.0850197534
   37      C      -9.0848374059     7.3547241686     1.8183068031
   38      C      -9.9241788071     8.4466897229     1.8131573344
   39      C     -11.2779599977     8.2378104027     2.0882328470
   40      C      -9.4108538753     9.8256051559     1.5192003460
   41      H      -8.0388745092     7.5221785613     1.6023277938
   42      C     -10.8932632670     5.8549652025     2.3681751894
   43      C       0.2701949513     0.9340892697    -0.3617459453
   44      C      -0.2816162917    -0.3988560732    -0.1398396267
   45      C     -11.3991657568     4.5176943688     2.6613751255
   46      C       1.5725472320     1.1187687938    -0.8468975019
   47      C       0.4518427442    -1.5604928915    -0.4238692527
   48      H       0.5419057066    -3.6892714073    -0.4527428696
   49      H       1.4530421440    -1.4860483930    -0.8242640706
   50      H      -0.5191341369     4.2241447645    -0.1046085605
   51      C       1.9060286381     4.8780876059    -1.0413539604
   52      H       3.1148825568     2.4642367108    -1.4392944976
   53      H       2.1961274356     0.2624774626    -1.0627623464
   54      C     -11.7399352435     6.9726673525     2.3583421366
   55      H     -12.7944537420     6.8550467804     2.5649744909
   56      H     -11.9681478611     9.0738555106     2.0885139228
   57      C     -12.7513506676     4.2865600668     2.9550468126
   58      H     -14.2881983374     2.8968221837     3.4536424513
   59      H     -13.4532608769     5.1084416820     2.9658624626
   60      H       2.8628705271     5.0158551059    -0.5342063888
   61      H       1.2305348289     5.6570608670    -0.6894697584
   62      H       2.0786391145     5.0503195269    -2.1059361173
   63      H      -1.9946517489    -4.9056160044    -0.4170110174
   64      H      -2.9219453026    -4.2969352334     0.9487472404
   65      H      -1.3006890241    -4.9340860403     1.1965771567
   66      H     -13.2643715936     0.4973728139     4.5760755154
   67      H     -13.7202627588     0.2849154102     2.8930735288
   68      H     -12.1184580772    -0.1992643684     3.4375457932
   69      H      -9.5793659900    10.5016724654     2.3599669753
   70      H      -8.3412820213     9.8184389047     1.3124669565
   71      H      -9.9109301596    10.2607136518     0.6514926811
   72      H      -4.4724157570     5.2728701243     1.0331135892
 ----------------------------------------------------------------

    6   -1588.7067292994      6.96e-09  Convergence criterion met
 Total energy in the final basis set =    -1588.7067292994
 Final energy is   -1588.70672929944
 **  OPTIMIZATION CONVERGED  **

                    Orbital Energies (a.u.)
 --------------------------------------------------------------

 Alpha MOs
 -- Occupied --
-10.373 -10.373 -10.373 -10.373 -10.370 -10.370 -10.369 -10.369
-10.369 -10.369 -10.369 -10.369 -10.364 -10.364 -10.364 -10.364
-10.364 -10.364 -10.364 -10.364 -10.361 -10.361 -10.361 -10.361
-10.356 -10.356 -10.356 -10.356 -10.349 -10.349 -10.348 -10.348
-10.331 -10.331 -10.331 -10.331 -10.301 -10.301 -10.299 -10.299
 -6.789  -6.788  -0.901  -0.901  -0.872  -0.872  -0.845  -0.844
 -0.811  -0.810  -0.780  -0.780  -0.772  -0.765  -0.764  -0.764
 -0.715  -0.715  -0.712  -0.710  -0.707  -0.698  -0.672  -0.672
 -0.630  -0.621  -0.610  -0.605  -0.594  -0.588  -0.574  -0.571
 -0.560  -0.545  -0.527  -0.516  -0.513  -0.513  -0.474  -0.468
 -0.468  -0.458  -0.455  -0.450  -0.439  -0.438  -0.433  -0.425
 -0.420  -0.417  -0.408  -0.408  -0.406  -0.406  -0.399  -0.398
 -0.391  -0.388  -0.384  -0.383  -0.382  -0.372  -0.370  -0.370
 -0.370  -0.369  -0.368  -0.359  -0.359  -0.347  -0.335  -0.334
 -0.328  -0.328  -0.322  -0.321  -0.321  -0.317  -0.315  -0.307
 -0.296  -0.295  -0.286  -0.283  -0.248  -0.246  -0.245  -0.238
 -0.234  -0.233  -0.231  -0.219  -0.217  -0.213  -0.186  -0.180
 -0.172  -0.162  -0.150  -0.145  -0.041

 Beta MOs
 -- Occupied --
-10.373 -10.373 -10.373 -10.373 -10.370 -10.370 -10.369 -10.369
-10.369 -10.369 -10.369 -10.369 -10.365 -10.365 -10.364 -10.364
-10.364 -10.364 -10.364 -10.364 -10.361 -10.361 -10.361 -10.361
-10.355 -10.355 -10.355 -10.355 -10.348 -10.348 -10.347 -10.347
-10.332 -10.332 -10.331 -10.331 -10.300 -10.300 -10.299 -10.299
 -6.786  -6.785  -0.900  -0.900  -0.872  -0.872  -0.844  -0.842
 -0.811  -0.810  -0.779  -0.779  -0.771  -0.765  -0.764  -0.763
 -0.715  -0.714  -0.710  -0.708  -0.706  -0.696  -0.671  -0.671
 -0.628  -0.621  -0.608  -0.604  -0.594  -0.588  -0.573  -0.571
 -0.560  -0.544  -0.523  -0.516  -0.512  -0.511  -0.473  -0.468
 -0.466  -0.456  -0.454  -0.450  -0.438  -0.437  -0.433  -0.424
 -0.420  -0.417  -0.408  -0.408  -0.406  -0.406  -0.397  -0.396
 -0.390  -0.388  -0.384  -0.382  -0.382  -0.371  -0.370  -0.369
 -0.368  -0.368  -0.367  -0.359  -0.358  -0.346  -0.335  -0.333
 -0.327  -0.327  -0.322  -0.320  -0.320  -0.317  -0.309  -0.303
 -0.296  -0.294  -0.285  -0.282  -0.244  -0.243  -0.241  -0.236
 -0.231  -0.229  -0.228  -0.218  -0.216  -0.210  -0.181  -0.178
 -0.161  -0.156  -0.148  -0.138

          Ground-State Mulliken Net Atomic Charges

     Atom                 Charge (a.u.)    Spin (a.u.)
  --------------------------------------------------------
      1 C                    -0.037026       0.044277
      2 C                    -0.037453       0.044882
      3 B                     0.022956       0.317785
      4 C                    -0.036073       0.044563
      5 C                    -0.038197       0.043971
      6 B                     0.020035       0.326297
      7 C                    -0.431365      -0.030935
      8 C                     0.103337       0.070891
      9 C                     0.100286       0.074575
     10 C                    -0.430415      -0.035292
     11 C                    -0.431720      -0.030533
     12 C                     0.103962       0.070605
     13 C                     0.099534       0.075263
     14 C                    -0.429261      -0.036066
     15 H                     0.186106       0.000885
     16 H                     0.019316      -0.023740
     17 C                     0.127585      -0.023728
     18 C                     0.130280      -0.025842
     19 C                    -0.386892       0.024361
     20 C                     0.146334      -0.013995
     21 C                    -0.275927       0.025692
     22 C                    -0.275953       0.028034
     23 C                     0.146822      -0.015506
     24 C                    -0.709915       0.001232
     25 H                     0.186923       0.001183
     26 C                    -0.386323       0.022280
     27 H                     0.186184       0.000906
     28 C                     0.130109      -0.025567
     29 C                    -0.276296       0.027789
     30 C                     0.146877      -0.015332
     31 C                    -0.386658       0.024080
     32 C                    -0.709662       0.001217
     33 H                     0.202233      -0.001489
     34 H                     0.186711       0.001217
     35 H                     0.202127      -0.001505
     36 C                     0.128699      -0.023562
     37 C                    -0.387646       0.022052
     38 C                     0.147020      -0.013840
     39 C                    -0.275841       0.025447
     40 C                    -0.709932       0.001096
     41 H                     0.202307      -0.001358
     42 C                     0.067281       0.018565
     43 C                     0.068691       0.018725
     44 C                     0.066245       0.020867
     45 C                     0.065421       0.021112
     46 C                    -0.305240      -0.011332
     47 C                    -0.305090      -0.012864
     48 H                     0.187197      -0.001786
     49 H                     0.186165       0.000633
     50 H                     0.202374      -0.001368
     51 C                    -0.709716       0.001110
     52 H                     0.187038      -0.001658
     53 H                     0.186544       0.000546
     54 C                    -0.304512      -0.011170
     55 H                     0.186593       0.000537
     56 H                     0.187104      -0.001643
     57 C                    -0.304316      -0.013002
     58 H                     0.187194      -0.001802
     59 H                     0.186159       0.000641
     60 H                     0.217557      -0.000416
     61 H                     0.228453      -0.000069
     62 H                     0.221722      -0.000510
     63 H                     0.220569      -0.000527
     64 H                     0.228610      -0.000075
     65 H                     0.218617      -0.000491
     66 H                     0.220591      -0.000552
     67 H                     0.218613      -0.000473
     68 H                     0.228621      -0.000076
     69 H                     0.219443      -0.000469
     70 H                     0.228537      -0.000069
     71 H                     0.219669      -0.000457
     72 H                     0.020675      -0.024211
  --------------------------------------------------------
  Sum of atomic charges =    -1.000000

                    Cartesian Multipole Moments
 -----------------------------------------------------------------
    Charge (ESU x 10^10)
                -4.8032
    Dipole Moment (Debye)
         X      26.3330      Y     -13.3703      Z      -6.7468
       Tot      30.2937
    Quadrupole Moments (Debye-Ang)
        XX    -442.3360     XY      97.8051     YY    -287.9927
        XZ      44.5331     YZ     -26.7071     ZZ    -274.4500

 Total job time:  19900.27s(wall), 71708.59s(cpu)
        *  Thank you very much for using Q-Chem.  Have a nice day.  *
