 Q-Chem 5.1, Q-Chem, Inc., Pleasanton, CA (2018)
 Q-Chem 5.1.1 for Intel X86 EM64T Linux

User input:
--------------------------------------------------------------
$rem
threads 4
jobtype opt
method PBEh-3c
basis def2-mSVP
mem_static      1024
mem_total       4000
sym_ignore      true
unrestricted true
scf_algorithm	diis
scf_max_cycles	250
solvent_method  pcm
geom_opt_tol_energy 25
geom_opt_tol_gradient 75
$end

$pcm
theory  iefpcm
$end

$solvent
dielectric      2.38
$end

$molecule
read PhenDBA_an.mol
$end
--------------------------------------------------------------

   20   -1588.7195145099      8.44e-09  Convergence criterion met
 Total energy in the final basis set =    -1588.7195145099
   15   -1588.7435747109      9.35e-09  Convergence criterion met
 Total energy in the final basis set =    -1588.7435747109
   15   -1588.7477918671      8.40e-09  Convergence criterion met
 Total energy in the final basis set =    -1588.7477918671
   14   -1588.7478789810      9.80e-09  Convergence criterion met
 Total energy in the final basis set =    -1588.7478789810
   14   -1588.7480355582      8.93e-09  Convergence criterion met
 Total energy in the final basis set =    -1588.7480355582
   14   -1588.7480457690      9.06e-09  Convergence criterion met
 Total energy in the final basis set =    -1588.7480457690
   14   -1588.7480550469      8.82e-09  Convergence criterion met
 Total energy in the final basis set =    -1588.7480550469
   14   -1588.7480751396      8.89e-09  Convergence criterion met
   14   -1588.7480647432      8.84e-09  Convergence criterion met
 Total energy in the final basis set =    -1588.7480647432
   14   -1588.7480636863      8.77e-09  Convergence criterion met
 Total energy in the final basis set =    -1588.7480636863
   14   -1588.7480645547      8.73e-09  Convergence criterion met
 Total energy in the final basis set =    -1588.7480645547
   14   -1588.7480629076      8.73e-09  Convergence criterion met
 Total energy in the final basis set =    -1588.7480629076
   14   -1588.7480661946      8.81e-09  Convergence criterion met
 Total energy in the final basis set =    -1588.7480661946
   14   -1588.7480685017      9.19e-09  Convergence criterion met
 Total energy in the final basis set =    -1588.7480685017

             Standard Nuclear Orientation (Angstroms)
    I     Atom           X                Y                Z
 ----------------------------------------------------------------
    1      C      -6.3735308982     3.9785817980     1.6622219398
    2      C      -6.8817059293     2.6666122038     1.9301920477
    3      B      -5.9782964345     1.4396553654     1.8029655328
    4      C      -4.5329361883     1.6242956080     1.3402970805
    5      C      -4.0143207537     2.9335385020     1.0797071128
    6      B      -4.9088085294     4.1668502567     1.2527116035
    7      C      -2.6952623174     3.0329838822     0.6322578741
    8      C      -1.8699762614     1.9340082304     0.4028306264
    9      C      -2.3960468357     0.6338311713     0.6437369855
   10      C      -3.6996892960     0.5291993271     1.1178148457
   11      C      -7.2642810411     5.0512540593     1.7466418861
   12      C      -8.6148024151     4.9137343896     2.0601110795
   13      C      -9.1133773242     3.6089555731     2.3350694769
   14      C      -8.2285555033     2.5380150681     2.2654724733
   15      H      -6.8620824672     6.0335659894     1.5324775932
   16      H      -6.4112272428     0.3364411255     2.0352074394
   17      C      -0.5052565593     2.0756550739    -0.0909396092
   18      C     -10.5230128086     3.4193852531     2.6556249924
   19      C     -11.0449644178     2.1479688535     2.9532973654
   20      C       1.3446906577     3.5112798550    -0.7959809191
   21      C       2.1051782427     2.3679539470    -1.0591376174
   22      C     -13.2357973345     3.0325042838     3.2354090541
   23      C     -12.3750006820     1.9308788576     3.2410616984
   24      C     -12.8955539367     0.5593356807     3.5574989913
   25      H      -4.1223895932    -0.4474889847     1.3170730116
   26      C       0.0642246957     3.3397291692    -0.3168047727
   27      H      -2.3229301802     4.0314237694     0.4408059116
   28      C      -1.5838606704    -0.5444274570     0.3651387211
   29      C      -0.0573630147    -2.8188670921    -0.2154116430
   30      C      -1.3507196113    -2.9792333016     0.2910252146
   31      C      -2.0806638787    -1.8439266125     0.5680573991
   32      C      -1.9213028577    -4.3495881638     0.5127433703
   33      H      -3.0827787606    -1.9770234520     0.9515490949
   34      H      -8.5852811206     1.5342459724     2.4594030973
   35      H     -10.3871159560     1.2899781855     2.9594193251
   36      C      -9.5288095542     6.0507468416     2.0870404083
   37      C      -9.0838002469     7.3567883615     1.8206234536
   38      C      -9.9243415437     8.4489710404     1.8121391300
   39      C     -11.2793463423     8.2373765549     2.0827364529
   40      C      -9.4126552961     9.8282763059     1.5191310657
   41      H      -8.0375312006     7.5273714671     1.6076669497
   42      C     -10.8942847053     5.8553535118     2.3665617141
   43      C       0.2718977512     0.9339971907    -0.3607188245
   44      C      -0.2800232300    -0.3993776368    -0.1394345787
   45      C     -11.4003476458     4.5179774610     2.6609003021
   46      C       1.5759770943     1.1180493964    -0.8437178971
   47      C       0.4555812739    -1.5610428202    -0.4218509849
   48      H       0.5449164577    -3.6890131087    -0.4503409170
   49      H       1.4579758004    -1.4878832161    -0.8192306463
   50      H      -0.5178958489     4.2272492796    -0.1107765171
   51      C       1.9087592265     4.8789810623    -1.0429931253
   52      H       3.1175989436     2.4639305533    -1.4340703966
   53      H       2.2013716612     0.2628128061    -1.0580902645
   54      C     -11.7428669865     6.9725262723     2.3528693799
   55      H     -12.7981153927     6.8559457558     2.5558549222
   56      H     -11.9701607258     9.0726723638     2.0800999468
   57      C     -12.7536687419     4.2877523904     2.9537601529
   58      H     -14.2891037908     2.8981771718     3.4537784612
   59      H     -13.4567454818     5.1085293283     2.9632697148
   60      H       2.8645548277     5.0152306025    -0.5341398426
   61      H       1.2329248895     5.6591715825    -0.6949326609
   62      H       2.0849086997     5.0467154096    -2.1074481870
   63      H      -1.9774781483    -4.9115009781    -0.4215590133
   64      H      -2.9264049697    -4.3023090463     0.9301135513
   65      H      -1.3048493684    -4.9315877867     1.2003896588
   66      H     -13.2670184886     0.5026433739     4.5827181724
   67      H     -13.7243110889     0.2875898665     2.9011798797
   68      H     -12.1224617657    -0.1999173724     3.4453591800
   69      H      -9.5974163032    10.5060277128     2.3547203759
   70      H      -8.3405233702     9.8254204872     1.3268281638
   71      H      -9.9045888640    10.2564489942     0.6436488499
   72      H      -4.4716703018     5.2717824341     1.0385556866
 ----------------------------------------------------------------

   15   -1588.7480712903      6.07e-09  Convergence criterion met
 Total energy in the final basis set =    -1588.7480712903
 Final energy is   -1588.74807129032
 **  OPTIMIZATION CONVERGED  **

                    Orbital Energies (a.u.)
 --------------------------------------------------------------

 Alpha MOs
 -- Occupied --
-10.421 -10.421 -10.421 -10.421 -10.421 -10.421 -10.421 -10.421
-10.420 -10.420 -10.420 -10.420 -10.412 -10.412 -10.412 -10.412
-10.408 -10.408 -10.408 -10.408 -10.406 -10.406 -10.405 -10.405
-10.405 -10.405 -10.405 -10.405 -10.403 -10.403 -10.402 -10.402
-10.389 -10.389 -10.388 -10.388 -10.360 -10.360 -10.358 -10.358
 -6.848  -6.847  -0.952  -0.952  -0.921  -0.921  -0.899  -0.897
 -0.860  -0.859  -0.829  -0.829  -0.825  -0.817  -0.811  -0.811
 -0.766  -0.764  -0.762  -0.759  -0.759  -0.752  -0.717  -0.717
 -0.681  -0.671  -0.662  -0.656  -0.643  -0.637  -0.624  -0.621
 -0.614  -0.600  -0.578  -0.566  -0.564  -0.561  -0.525  -0.519
 -0.517  -0.507  -0.505  -0.497  -0.488  -0.487  -0.482  -0.473
 -0.469  -0.465  -0.453  -0.450  -0.450  -0.448  -0.447  -0.447
 -0.444  -0.438  -0.433  -0.431  -0.431  -0.425  -0.422  -0.421
 -0.420  -0.413  -0.413  -0.403  -0.401  -0.398  -0.384  -0.381
 -0.380  -0.377  -0.371  -0.370  -0.370  -0.370  -0.367  -0.362
 -0.347  -0.345  -0.337  -0.336  -0.306  -0.303  -0.303  -0.287
 -0.286  -0.284  -0.284  -0.276  -0.273  -0.271  -0.240  -0.232
 -0.226  -0.214  -0.205  -0.201  -0.101

 Beta MOs
 -- Occupied --
-10.421 -10.421 -10.421 -10.421 -10.421 -10.421 -10.421 -10.421
-10.420 -10.420 -10.420 -10.420 -10.412 -10.412 -10.412 -10.412
-10.408 -10.408 -10.408 -10.408 -10.405 -10.405 -10.405 -10.405
-10.405 -10.405 -10.404 -10.404 -10.403 -10.403 -10.402 -10.402
-10.389 -10.389 -10.388 -10.388 -10.359 -10.359 -10.358 -10.358
 -6.845  -6.844  -0.952  -0.951  -0.921  -0.921  -0.898  -0.896
 -0.860  -0.858  -0.828  -0.828  -0.824  -0.817  -0.811  -0.811
 -0.764  -0.763  -0.761  -0.759  -0.758  -0.750  -0.717  -0.716
 -0.679  -0.670  -0.660  -0.655  -0.643  -0.637  -0.623  -0.620
 -0.613  -0.599  -0.575  -0.566  -0.563  -0.561  -0.524  -0.518
 -0.517  -0.505  -0.504  -0.497  -0.487  -0.486  -0.481  -0.472
 -0.469  -0.465  -0.451  -0.450  -0.450  -0.447  -0.447  -0.446
 -0.442  -0.437  -0.432  -0.431  -0.430  -0.424  -0.421  -0.419
 -0.418  -0.413  -0.413  -0.403  -0.401  -0.396  -0.384  -0.381
 -0.379  -0.376  -0.370  -0.369  -0.369  -0.367  -0.365  -0.358
 -0.346  -0.344  -0.336  -0.335  -0.303  -0.301  -0.294  -0.285
 -0.282  -0.281  -0.280  -0.275  -0.271  -0.268  -0.233  -0.229
 -0.215  -0.209  -0.203  -0.194

          Ground-State Mulliken Net Atomic Charges

     Atom                 Charge (a.u.)    Spin (a.u.)
  --------------------------------------------------------
      1 C                    -0.040380       0.037969
      2 C                    -0.040809       0.039487
      3 B                    -0.004762       0.327715
      4 C                    -0.039577       0.039160
      5 C                    -0.041607       0.037799
      6 B                    -0.008655       0.337354
      7 C                    -0.442729      -0.021976
      8 C                     0.092363       0.065751
      9 C                     0.089186       0.070161
     10 C                    -0.441487      -0.027159
     11 C                    -0.442702      -0.021407
     12 C                     0.092793       0.065379
     13 C                     0.088668       0.070939
     14 C                    -0.440312      -0.028054
     15 H                     0.201107       0.000348
     16 H                     0.015215      -0.024470
     17 C                     0.119377      -0.021273
     18 C                     0.121790      -0.023704
     19 C                    -0.398899       0.021286
     20 C                     0.134671      -0.012137
     21 C                    -0.285569       0.022643
     22 C                    -0.285493       0.025060
     23 C                     0.134907      -0.013750
     24 C                    -0.716718       0.001083
     25 H                     0.201867       0.000705
     26 C                    -0.398572       0.019071
     27 H                     0.201156       0.000379
     28 C                     0.121728      -0.023384
     29 C                    -0.285977       0.024785
     30 C                     0.135164      -0.013561
     31 C                    -0.398778       0.020988
     32 C                    -0.716507       0.001068
     33 H                     0.218209      -0.001270
     34 H                     0.201390       0.000745
     35 H                     0.217996      -0.001286
     36 C                     0.120217      -0.021068
     37 C                    -0.399605       0.018830
     38 C                     0.135209      -0.011966
     39 C                    -0.285365       0.022384
     40 C                    -0.716812       0.000940
     41 H                     0.218302      -0.001133
     42 C                     0.061839       0.017310
     43 C                     0.063160       0.017503
     44 C                     0.060952       0.019787
     45 C                     0.060159       0.020068
     46 C                    -0.320644      -0.010834
     47 C                    -0.320549      -0.012446
     48 H                     0.212547      -0.001547
     49 H                     0.210117       0.000609
     50 H                     0.218314      -0.001145
     51 C                    -0.716564       0.000954
     52 H                     0.212413      -0.001420
     53 H                     0.210433       0.000519
     54 C                    -0.319983      -0.010653
     55 H                     0.210523       0.000509
     56 H                     0.212454      -0.001404
     57 C                    -0.319916      -0.012609
     58 H                     0.212532      -0.001564
     59 H                     0.210187       0.000618
     60 H                     0.229547      -0.000365
     61 H                     0.236375      -0.000059
     62 H                     0.233040      -0.000440
     63 H                     0.231865      -0.000463
     64 H                     0.236471      -0.000065
     65 H                     0.230616      -0.000440
     66 H                     0.232181      -0.000490
     67 H                     0.230318      -0.000421
     68 H                     0.236503      -0.000066
     69 H                     0.231012      -0.000402
     70 H                     0.236440      -0.000059
     71 H                     0.231408      -0.000400
     72 H                     0.016249      -0.025015
  --------------------------------------------------------
  Sum of atomic charges =    -1.000000

                    Cartesian Multipole Moments
 -----------------------------------------------------------------
    Charge (ESU x 10^10)
                -4.8032
    Dipole Moment (Debye)
         X      26.2360      Y     -13.4251      Z      -7.0238
       Tot      30.2968
    Quadrupole Moments (Debye-Ang)
        XX    -413.7589     XY      90.8470     YY    -272.1621
        XZ      38.6378     YZ     -26.9126     ZZ    -273.4076

 Total job time:  28379.63s(wall), 104402.87s(cpu)
        *  Thank you very much for using Q-Chem.  Have a nice day.  *
