 Q-Chem 5.1, Q-Chem, Inc., Pleasanton, CA (2018)
 Q-Chem 5.1.1 for Intel X86 EM64T Linux

User input:
--------------------------------------------------------------
$rem
threads 4
jobtype	opt
method PBEh-3c
basis def2-mSVP
mem_static	1024
mem_total	3000
sym_ignore	true
scf_convergence	9
solvent_method	pcm
$end

$molecule
read PhenDBA.mol
$end

$solvent
dielectric	1.0001
$end

$pcm
theory iefpcm
$end

--------------------------------------------------------------

   17   -1588.6213148404      5.10e-10  Convergence criterion met
 Total energy in the final basis set =    -1588.6213148404
   14   -1588.6422472847      7.16e-10  Convergence criterion met
 Total energy in the final basis set =    -1588.6422472847
   13   -1588.6448135801      9.08e-10  Convergence criterion met
 Total energy in the final basis set =    -1588.6448135801
   13   -1588.6446696130      4.23e-10  Convergence criterion met
 Total energy in the final basis set =    -1588.6446696130
   12   -1588.6449094353      7.39e-10  Convergence criterion met
 Total energy in the final basis set =    -1588.6449094353
   11   -1588.6449159524      6.91e-10  Convergence criterion met
 Total energy in the final basis set =    -1588.6449159524
   11   -1588.6449328722      4.97e-10  Convergence criterion met
 Total energy in the final basis set =    -1588.6449328722
   11   -1588.6449652939      8.35e-10  Convergence criterion met
 Total energy in the final basis set =    -1588.6449652939
   10   -1588.6449717078      7.02e-10  Convergence criterion met
 Total energy in the final basis set =    -1588.6449717078
   10   -1588.6449739821      6.58e-10  Convergence criterion met
 Total energy in the final basis set =    -1588.6449739821
   10   -1588.6449781621      9.76e-10  Convergence criterion met
 Total energy in the final basis set =    -1588.6449781621

             Standard Nuclear Orientation (Angstroms)
    I     Atom           X                Y                Z
 ----------------------------------------------------------------
    1      C      -6.3683166683     3.9874503798     1.7362999954
    2      C      -6.8685434964     2.6881868326     2.0123084846
    3      B      -5.9443858643     1.4578359406     1.9050011568
    4      C      -4.4914490528     1.6337939374     1.4186072291
    5      C      -3.9778894276     2.9305378085     1.1561286858
    6      B      -4.8850198634     4.1709002208     1.3376363267
    7      C      -2.6820694079     3.0431806505     0.6943643457
    8      C      -1.8584396350     1.9295091327     0.4397841692
    9      C      -2.3807982899     0.6447379453     0.6759100032
   10      C      -3.6872552842     0.5394562837     1.1836927052
   11      C      -7.2429132811     5.0543426171     1.7902796078
   12      C      -8.6123546403     4.9100024975     2.0853938139
   13      C      -9.1026233812     3.6207268415     2.3646087725
   14      C      -8.2022959338     2.5422760936     2.3275506298
   15      H      -6.8429249336     6.0353886501     1.5744071267
   16      H      -6.3646094965     0.3666518364     2.1664196947
   17      C      -0.5079241459     2.0772642211    -0.0804901119
   18      C     -10.5127863725     3.4182104351     2.6604830432
   19      C     -11.0262349163     2.1435893699     2.9566562429
   20      C       1.3256264406     3.5152250908    -0.8044306756
   21      C       2.0669891212     2.3691501738    -1.1121029840
   22      C     -13.2231403368     3.0194481869     3.1932165340
   23      C     -12.3578295397     1.9204442772     3.2220239716
   24      C     -12.8811326801     0.5506000577     3.5357292651
   25      H      -4.1069367327    -0.4353267689     1.3898364819
   26      C       0.0591092463     3.3436788301    -0.2951353065
   27      H      -2.3096603655     4.0395592982     0.5014748765
   28      C      -1.5901820274    -0.5376645254     0.3701919613
   29      C      -0.1027183838    -2.8086649605    -0.2728415381
   30      C      -1.3828119556    -2.9684764151     0.2691056222
   31      C      -2.0952696423    -1.8326436060     0.5774898507
   32      C      -1.9508368109    -4.3381082548     0.4934748509
   33      H      -3.0858836766    -1.9646005282     0.9890689755
   34      H      -8.5559745461     1.5417048682     2.5337520881
   35      H     -10.3651851590     1.2889005009     2.9815107180
   36      C      -9.5238564837     6.0451230992     2.0830215958
   37      C      -9.0734436614     7.3472274989     1.8100755076
   38      C      -9.9162810330     8.4345312453     1.7764020825
   39      C     -11.2753491302     8.2173706174     2.0268440611
   40      C      -9.4098659357     9.8137042321     1.4800317653
   41      H      -8.0250056651     7.5214302067     1.6136777528
   42      C     -10.8911952331     5.8437874791     2.3417160794
   43      C       0.2504511446     0.9343201959    -0.3881294508
   44      C      -0.3016320017    -0.3927356258    -0.1687406386
   45      C     -11.3933230387     4.5121809011     2.6391218019
   46      C       1.5414268338     1.1192148933    -0.9068835439
   47      C       0.4173925259    -1.5575918518    -0.4828234033
   48      H       0.4849414782    -3.6813747010    -0.5322337152
   49      H       1.4086799177    -1.4898401636    -0.9062580417
   50      H      -0.5084143630     4.2316927382    -0.0553473123
   51      C       1.9005272516     4.8800359473    -1.0342391866
   52      H       3.0678862051     2.4669047884    -1.5153211318
   53      H       2.1550583314     0.2659377862    -1.1564501490
   54      C     -11.7434799719     6.9584441224     2.3018216958
   55      H     -12.8011647936     6.8421389080     2.4876671218
   56      H     -11.9673777652     9.0508258920     2.0036210990
   57      C     -12.7506434960     4.2749772283     2.9111168876
   58      H     -14.2783724141     2.8785395855     3.3955823882
   59      H     -13.4598918379     5.0894409195     2.9033162303
   60      H       2.8434968743     5.0097405825    -0.5009047109
   61      H       1.2216820711     5.6634738591    -0.7003359666
   62      H       2.1036454787     5.0491523697    -2.0931139205
   63      H      -2.0210863141    -4.8951128677    -0.4422983773
   64      H      -2.9492814887    -4.2941273187     0.9263857739
   65      H      -1.3241640963    -4.9222760339     1.1693212058
   66      H     -13.2971672396     0.5071998008     4.5438294653
   67      H     -13.6775283593     0.2637871330     2.8470811328
   68      H     -12.1002195293    -0.2056781154     3.4694619207
   69      H      -9.6069218592    10.4942028167     2.3100447727
   70      H      -8.3361521749     9.8182926850     1.2980145709
   71      H      -9.8961307302    10.2327877490     0.5975552625
   72      H      -4.4473183567     5.2681934782     1.1401527623
 ----------------------------------------------------------------

   10   -1588.6449778274      7.34e-10  Convergence criterion met
 Total energy in the final basis set =    -1588.6449778274
 Final energy is   -1588.64497782738
 **  OPTIMIZATION CONVERGED  **

                    Orbital Energies (a.u.)
 --------------------------------------------------------------

 Alpha MOs
 -- Occupied --
-10.468 -10.468 -10.468 -10.468 -10.465 -10.465 -10.465 -10.465
-10.464 -10.464 -10.464 -10.464 -10.460 -10.460 -10.460 -10.460
-10.454 -10.454 -10.453 -10.453 -10.452 -10.452 -10.452 -10.452
-10.449 -10.449 -10.449 -10.449 -10.449 -10.448 -10.448 -10.448
-10.438 -10.438 -10.438 -10.438 -10.429 -10.429 -10.428 -10.427
 -6.944  -6.942  -1.000  -1.000  -0.963  -0.963  -0.957  -0.954
 -0.906  -0.903  -0.879  -0.877  -0.877  -0.870  -0.852  -0.852
 -0.822  -0.819  -0.819  -0.807  -0.798  -0.798  -0.757  -0.756
 -0.732  -0.718  -0.715  -0.707  -0.688  -0.682  -0.670  -0.669
 -0.665  -0.660  -0.627  -0.617  -0.613  -0.607  -0.579  -0.570
 -0.566  -0.557  -0.553  -0.541  -0.536  -0.531  -0.528  -0.516
 -0.515  -0.512  -0.509  -0.500  -0.497  -0.495  -0.488  -0.488
 -0.483  -0.483  -0.483  -0.478  -0.473  -0.472  -0.471  -0.466
 -0.464  -0.455  -0.454  -0.452  -0.446  -0.440  -0.439  -0.437
 -0.424  -0.422  -0.419  -0.414  -0.412  -0.412  -0.409  -0.409
 -0.400  -0.390  -0.388  -0.384  -0.375  -0.367  -0.353  -0.347
 -0.340  -0.331  -0.331  -0.327  -0.323  -0.321  -0.286  -0.277
 -0.268  -0.255  -0.252  -0.250

          Ground-State Mulliken Net Atomic Charges

     Atom                 Charge (a.u.)
  ----------------------------------------
      1 C                    -0.067143
      2 C                    -0.065633
      3 B                     0.215512
      4 C                    -0.064284
      5 C                    -0.068455
      6 B                     0.217725
      7 C                    -0.408063
      8 C                     0.111976
      9 C                     0.110832
     10 C                    -0.408401
     11 C                    -0.408680
     12 C                     0.113000
     13 C                     0.110335
     14 C                    -0.407498
     15 H                     0.211383
     16 H                     0.034548
     17 C                     0.128517
     18 C                     0.130794
     19 C                    -0.380850
     20 C                     0.142754
     21 C                    -0.261886
     22 C                    -0.261848
     23 C                     0.143079
     24 C                    -0.708125
     25 H                     0.211807
     26 C                    -0.380382
     27 H                     0.211334
     28 C                     0.130656
     29 C                    -0.262164
     30 C                     0.143079
     31 C                    -0.380468
     32 C                    -0.707879
     33 H                     0.203779
     34 H                     0.211535
     35 H                     0.203819
     36 C                     0.129756
     37 C                    -0.381720
     38 C                     0.143330
     39 C                    -0.261962
     40 C                    -0.708211
     41 H                     0.203969
     42 C                     0.082594
     43 C                     0.084288
     44 C                     0.081993
     45 C                     0.081078
     46 C                    -0.305209
     47 C                    -0.305063
     48 H                     0.214723
     49 H                     0.205905
     50 H                     0.204081
     51 C                    -0.708236
     52 H                     0.214536
     53 H                     0.206163
     54 C                    -0.304287
     55 H                     0.206162
     56 H                     0.214554
     57 C                    -0.304244
     58 H                     0.214738
     59 H                     0.205899
     60 H                     0.234645
     61 H                     0.230439
     62 H                     0.236040
     63 H                     0.235510
     64 H                     0.230399
     65 H                     0.235213
     66 H                     0.236097
     67 H                     0.234628
     68 H                     0.230479
     69 H                     0.235440
     70 H                     0.230424
     71 H                     0.235167
     72 H                     0.035980
  ----------------------------------------
  Sum of atomic charges =    -0.000000

                    Cartesian Multipole Moments
 -----------------------------------------------------------------
    Charge (ESU x 10^10)
                -0.0000
    Dipole Moment (Debye)
         X      -0.2013      Y      -0.0941      Z      -0.5958
       Tot       0.6359
    Quadrupole Moments (Debye-Ang)
        XX    -190.3937     XY      -6.6140     YY    -199.4523
        XZ     -15.1997     YZ      -4.5495     ZZ    -253.6519

 Total job time:  13545.51s(wall), 49545.78s(cpu)
        *  Thank you very much for using Q-Chem.  Have a nice day.  *
