 Q-Chem 5.1, Q-Chem, Inc., Pleasanton, CA (2018)
 Q-Chem 5.1.1 for Intel X86 EM64T Linux

User input:
--------------------------------------------------------------
$rem
threads 4
jobtype	opt
method PBEh-3c
basis def2-mSVP
mem_static	1024
mem_total	3000
sym_ignore	true
scf_convergence	9
solvent_method	pcm
$end

$molecule
read PhenDBA.mol
$end

$solvent
dielectric	2.38
$end

$pcm
theory iefpcm
$end

--------------------------------------------------------------

   16   -1588.6315800275      5.52e-10  Convergence criterion met
 Total energy in the final basis set =    -1588.6315800275
   14   -1588.6520956700      8.26e-10  Convergence criterion met
 Total energy in the final basis set =    -1588.6520956700
   13   -1588.6545818789      9.96e-10  Convergence criterion met
 Total energy in the final basis set =    -1588.6545818789
   14   -1588.6544507156      6.45e-10  Convergence criterion met
 Total energy in the final basis set =    -1588.6544507156
   14   -1588.6546852276      5.61e-10  Convergence criterion met
 Total energy in the final basis set =    -1588.6546852276
   13   -1588.6546914362      9.70e-10  Convergence criterion met
 Total energy in the final basis set =    -1588.6546914362
   13   -1588.6547059967      9.55e-10  Convergence criterion met
 Total energy in the final basis set =    -1588.6547059967
   13   -1588.6547281078      9.46e-10  Convergence criterion met
 Total energy in the final basis set =    -1588.6547281078
   13   -1588.6547337476      8.93e-10  Convergence criterion met
 Total energy in the final basis set =    -1588.6547337476
   13   -1588.6547377707      8.88e-10  Convergence criterion met
 Total energy in the final basis set =    -1588.6547377707
   13   -1588.6547440745      8.62e-10  Convergence criterion met
 Total energy in the final basis set =    -1588.6547440745

             Standard Nuclear Orientation (Angstroms)
    I     Atom           X                Y                Z
 ----------------------------------------------------------------
    1      C      -6.3704806250     3.9875802949     1.7288817680
    2      C      -6.8703373326     2.6881131117     2.0070526461
    3      B      -5.9456167121     1.4580223501     1.9002655098
    4      C      -4.4927892147     1.6332859105     1.4130639009
    5      C      -3.9797801579     2.9302177448     1.1479417842
    6      B      -4.8876206856     4.1703209072     1.3280551354
    7      C      -2.6836182080     3.0434146544     0.6858389897
    8      C      -1.8591204574     1.9289572668     0.4344940496
    9      C      -2.3805494670     0.6439660354     0.6742004606
   10      C      -3.6878971362     0.5382172916     1.1811201635
   11      C      -7.2446206630     5.0554123925     1.7840453427
   12      C      -8.6137876400     4.9107431343     2.0829967705
   13      C      -9.1043274215     3.6209062131     2.3614265646
   14      C      -8.2041438204     2.5416277465     2.3239032573
   15      H      -6.8461867738     6.0366576353     1.5657648536
   16      H      -6.3652062315     0.3672685615     2.1639040384
   17      C      -0.5082795617     2.0771223063    -0.0856306470
   18      C     -10.5147768712     3.4177287835     2.6569801211
   19      C     -11.0282347695     2.1417552224     2.9502133474
   20      C       1.3249409045     3.5149266125    -0.8120537965
   21      C       2.0680630496     2.3677765598    -1.1149404547
   22      C     -13.2258292551     3.0192957588     3.1878973465
   23      C     -12.3607570998     1.9190862665     3.2147840667
   24      C     -12.8854497700     0.5490090999     3.5249048537
   25      H      -4.1062782519    -0.4369793979     1.3881896560
   26      C       0.0572955081     3.3442972812    -0.3034213575
   27      H      -2.3107401296     4.0392453828     0.4907231895
   28      C      -1.5886563698    -0.5390778783     0.3729556813
   29      C      -0.0985732066    -2.8101841263    -0.2647347614
   30      C      -1.3780272597    -2.9703201225     0.2805654275
   31      C      -2.0925501082    -1.8342035429     0.5861923507
   32      C      -1.9431251167    -4.3401006751     0.5107885021
   33      H      -3.0821539028    -1.9675001718     1.0001929400
   34      H      -8.5585582325     1.5416048002     2.5317384898
   35      H     -10.3685126635     1.2857948971     2.9731358500
   36      C      -9.5242716959     6.0470186011     2.0852600872
   37      C      -9.0717949497     7.3503339825     1.8186824010
   38      C      -9.9148221407     8.4384502779     1.7890710155
   39      C     -11.2750242052     8.2204076929     2.0367686091
   40      C      -9.4074948458     9.8188762289     1.5004864365
   41      H      -8.0229643206     7.5260647185     1.6252695145
   42      C     -10.8920884510     5.8450734126     2.3432188417
   43      C       0.2512180481     0.9333764314    -0.3895181489
   44      C      -0.3001833107    -0.3938261943    -0.1672442329
   45      C     -11.3949567733     4.5126085878     2.6371692436
   46      C       1.5435682070     1.1172292967    -0.9068191997
   47      C       0.4203610097    -1.5588364450    -0.4797199285
   48      H       0.4896856507    -3.6829775923    -0.5226942517
   49      H       1.4107153607    -1.4916576073    -0.9057055798
   50      H      -0.5105046815     4.2333911046    -0.0676539954
   51      C       1.8991603440     4.8792995322    -1.0457080837
   52      H       3.0696368820     2.4652144265    -1.5166858105
   53      H       2.1591562101     0.2639676167    -1.1522342880
   54      C     -11.7447015303     6.9603222952     2.3067350765
   55      H     -12.8027850012     6.8443952502     2.4911284148
   56      H     -11.9667589585     9.0542335329     2.0160744691
   57      C     -12.7531564015     4.2759476024     2.9082607022
   58      H     -14.2812210651     2.8784583289     3.3897052313
   59      H     -13.4627398004     5.0903406473     2.9021135898
   60      H       2.8424765560     5.0093282323    -0.5130873856
   61      H       1.2193467645     5.6629791951    -0.7144618184
   62      H       2.1032759102     5.0435186914    -2.1051752259
   63      H      -2.0163882408    -4.8982530208    -0.4240830060
   64      H      -2.9390565316    -4.2958905843     0.9493426509
   65      H      -1.3102518430    -4.9216881503     1.1830378972
   66      H     -13.3086472828     0.5070329413     4.5300685223
   67      H     -13.6782723743     0.2638880859     2.8314374652
   68      H     -12.1035786096    -0.2066246090     3.4634034391
   69      H      -9.6063804342    10.4941712033     2.3343101838
   70      H      -8.3336769328     9.8233199630     1.3191750385
   71      H      -9.8948133273    10.2424065777     0.6207264437
   72      H      -4.4505315819     5.2673014394     1.1280996416
 ----------------------------------------------------------------

   13   -1588.6547439434      9.08e-10  Convergence criterion met
 Total energy in the final basis set =    -1588.6547439434
 Final energy is   -1588.65474394341
 **  OPTIMIZATION CONVERGED  **

                    Orbital Energies (a.u.)
 --------------------------------------------------------------

 Alpha MOs
 -- Occupied --
-10.472 -10.471 -10.471 -10.471 -10.467 -10.467 -10.467 -10.467
-10.466 -10.466 -10.466 -10.465 -10.461 -10.461 -10.461 -10.461
-10.457 -10.457 -10.456 -10.456 -10.452 -10.452 -10.452 -10.452
-10.449 -10.449 -10.449 -10.449 -10.449 -10.449 -10.449 -10.449
-10.434 -10.434 -10.434 -10.434 -10.432 -10.432 -10.431 -10.431
 -6.947  -6.945  -1.002  -1.002  -0.963  -0.963  -0.959  -0.956
 -0.906  -0.904  -0.880  -0.878  -0.878  -0.872  -0.852  -0.852
 -0.823  -0.821  -0.821  -0.809  -0.796  -0.796  -0.755  -0.755
 -0.733  -0.719  -0.716  -0.709  -0.688  -0.682  -0.672  -0.669
 -0.665  -0.662  -0.628  -0.618  -0.613  -0.607  -0.580  -0.571
 -0.566  -0.557  -0.553  -0.540  -0.535  -0.530  -0.528  -0.516
 -0.515  -0.514  -0.509  -0.500  -0.498  -0.495  -0.488  -0.487
 -0.484  -0.480  -0.480  -0.478  -0.474  -0.471  -0.470  -0.466
 -0.464  -0.455  -0.452  -0.450  -0.447  -0.438  -0.437  -0.436
 -0.427  -0.421  -0.418  -0.416  -0.411  -0.411  -0.410  -0.410
 -0.400  -0.390  -0.389  -0.386  -0.377  -0.369  -0.356  -0.350
 -0.342  -0.333  -0.333  -0.329  -0.324  -0.322  -0.288  -0.279
 -0.270  -0.256  -0.254  -0.252

          Ground-State Mulliken Net Atomic Charges

     Atom                 Charge (a.u.)
  ----------------------------------------
      1 C                    -0.070528
      2 C                    -0.068904
      3 B                     0.211259
      4 C                    -0.067592
      5 C                    -0.071828
      6 B                     0.213623
      7 C                    -0.416063
      8 C                     0.104690
      9 C                     0.103522
     10 C                    -0.416506
     11 C                    -0.416674
     12 C                     0.105438
     13 C                     0.103235
     14 C                    -0.415626
     15 H                     0.226851
     16 H                     0.033713
     17 C                     0.121026
     18 C                     0.123225
     19 C                    -0.392410
     20 C                     0.133276
     21 C                    -0.271646
     22 C                    -0.271541
     23 C                     0.133553
     24 C                    -0.714437
     25 H                     0.227220
     26 C                    -0.391730
     27 H                     0.226728
     28 C                     0.123056
     29 C                    -0.271899
     30 C                     0.133584
     31 C                    -0.392020
     32 C                    -0.714183
     33 H                     0.221716
     34 H                     0.226994
     35 H                     0.221663
     36 C                     0.121986
     37 C                    -0.393079
     38 C                     0.133746
     39 C                    -0.271689
     40 C                    -0.714514
     41 H                     0.221865
     42 C                     0.075491
     43 C                     0.077122
     44 C                     0.074984
     45 C                     0.074040
     46 C                    -0.318784
     47 C                    -0.318711
     48 H                     0.231108
     49 H                     0.224752
     50 H                     0.221769
     51 C                    -0.714536
     52 H                     0.230911
     53 H                     0.224976
     54 C                    -0.317991
     55 H                     0.225131
     56 H                     0.230960
     57 C                    -0.317974
     58 H                     0.231173
     59 H                     0.224839
     60 H                     0.240404
     61 H                     0.237087
     62 H                     0.241690
     63 H                     0.241267
     64 H                     0.237067
     65 H                     0.240864
     66 H                     0.241650
     67 H                     0.240516
     68 H                     0.237112
     69 H                     0.241108
     70 H                     0.237053
     71 H                     0.240888
     72 H                     0.034932
  ----------------------------------------
  Sum of atomic charges =    -0.000000

                    Cartesian Multipole Moments
 -----------------------------------------------------------------
    Charge (ESU x 10^10)
                -0.0000
    Dipole Moment (Debye)
         X      -0.2352      Y      -0.1138      Z      -0.6885
       Tot       0.7365
    Quadrupole Moments (Debye-Ang)
        XX    -180.9119     XY      -8.0533     YY    -192.3737
        XZ     -17.2957     YZ      -5.0063     ZZ    -253.4110

 Total job time:  15376.62s(wall), 56574.58s(cpu)
        *  Thank you very much for using Q-Chem.  Have a nice day.  *
